 Entering Gaussian System, Link 0=g16
 Initial command:
 /gpfs/apps/hpc/Apps/Restricted/Gaussian/Rev_A.03/g16/l1.exe "/gpfs/scratch60/fas/hammes_schiffer/jg2487/c43n02/Gau-339655.inp" -scrdir="/gpfs/scratch60/fas/hammes_schiffer/jg2487/c43n02/"
 Entering Link 1 = /gpfs/apps/hpc/Apps/Restricted/Gaussian/Rev_A.03/g16/l1.exe PID=    339656.
  
 Copyright (c) 1988,1990,1992,1993,1995,1998,2003,2009,2016,
            Gaussian, Inc.  All Rights Reserved.
  
 This is part of the Gaussian(R) 16 program.  It is based on
 the Gaussian(R) 09 system (copyright 2009, Gaussian, Inc.),
 the Gaussian(R) 03 system (copyright 2003, Gaussian, Inc.),
 the Gaussian(R) 98 system (copyright 1998, Gaussian, Inc.),
 the Gaussian(R) 94 system (copyright 1995, Gaussian, Inc.),
 the Gaussian 92(TM) system (copyright 1992, Gaussian, Inc.),
 the Gaussian 90(TM) system (copyright 1990, Gaussian, Inc.),
 the Gaussian 88(TM) system (copyright 1988, Gaussian, Inc.),
 the Gaussian 86(TM) system (copyright 1986, Carnegie Mellon
 University), and the Gaussian 82(TM) system (copyright 1983,
 Carnegie Mellon University). Gaussian is a federally registered
 trademark of Gaussian, Inc.
  
 This software contains proprietary and confidential information,
 including trade secrets, belonging to Gaussian, Inc.
  
 This software is provided under written license and may be
 used, copied, transmitted, or stored only in accord with that
 written license.
  
 The following legend is applicable only to US Government
 contracts under FAR:
  
                    RESTRICTED RIGHTS LEGEND
  
 Use, reproduction and disclosure by the US Government is
 subject to restrictions as set forth in subparagraphs (a)
 and (c) of the Commercial Computer Software - Restricted
 Rights clause in FAR 52.227-19.
  
 Gaussian, Inc.
 340 Quinnipiac St., Bldg. 40, Wallingford CT 06492
  
  
 ---------------------------------------------------------------
 Warning -- This program may not be used in any manner that
 competes with the business of Gaussian, Inc. or will provide
 assistance to any competitor of Gaussian, Inc.  The licensee
 of this program is prohibited from giving any competitor of
 Gaussian, Inc. access to this program.  By using this program,
 the user acknowledges that Gaussian, Inc. is engaged in the
 business of creating and licensing software in the field of
 computational chemistry and represents and warrants to the
 licensee that it is not a competitor of Gaussian, Inc. and that
 it will not use this program in any manner prohibited above.
 ---------------------------------------------------------------
  

 Cite this work as:
 Gaussian 16, Revision A.03,
 M. J. Frisch, G. W. Trucks, H. B. Schlegel, G. E. Scuseria, 
 M. A. Robb, J. R. Cheeseman, G. Scalmani, V. Barone, 
 G. A. Petersson, H. Nakatsuji, X. Li, M. Caricato, A. V. Marenich, 
 J. Bloino, B. G. Janesko, R. Gomperts, B. Mennucci, H. P. Hratchian, 
 J. V. Ortiz, A. F. Izmaylov, J. L. Sonnenberg, D. Williams-Young, 
 F. Ding, F. Lipparini, F. Egidi, J. Goings, B. Peng, A. Petrone, 
 T. Henderson, D. Ranasinghe, V. G. Zakrzewski, J. Gao, N. Rega, 
 G. Zheng, W. Liang, M. Hada, M. Ehara, K. Toyota, R. Fukuda, 
 J. Hasegawa, M. Ishida, T. Nakajima, Y. Honda, O. Kitao, H. Nakai, 
 T. Vreven, K. Throssell, J. A. Montgomery, Jr., J. E. Peralta, 
 F. Ogliaro, M. J. Bearpark, J. J. Heyd, E. N. Brothers, K. N. Kudin, 
 V. N. Staroverov, T. A. Keith, R. Kobayashi, J. Normand, 
 K. Raghavachari, A. P. Rendell, J. C. Burant, S. S. Iyengar, 
 J. Tomasi, M. Cossi, J. M. Millam, M. Klene, C. Adamo, R. Cammi, 
 J. W. Ochterski, R. L. Martin, K. Morokuma, O. Farkas, 
 J. B. Foresman, and D. J. Fox, Gaussian, Inc., Wallingford CT, 2016.
 
 ******************************************
 Gaussian 16:  ES64L-G16RevA.03 25-Dec-2016
                21-Dec-2018 
 ******************************************
 %chk=cyclohexyl-monoBIP-E1PT_rev.chk
 %mem=10GB
 %nprocshared=16
 Will use up to   16 processors via shared memory.
 ----------------------------------------------------------------------
 #p opt=(calcfc,tight) freq=internalmodes b3lyp/6-31g(d,p) scrf=(cpcm,s
 olvent=dichloromethane,read) nosymm empiricaldispersion=gd3bj int=grid
 =ultrafine
 ----------------------------------------------------------------------
 1/7=10,10=4,18=20,19=15,26=6,38=1,40=2/1,3;
 2/9=110,12=2,15=1,17=6,18=5,40=1/2;
 3/5=1,6=6,7=101,11=2,25=1,30=1,70=2103,71=2,72=9,74=-5,75=-5,124=41,140=1/1,2,3;
 4//1;
 5/5=2,38=5,53=9/2;
 8/6=4,10=90,11=11/1;
 11/6=1,8=1,9=11,15=111,16=1,31=1/1,2,10;
 10/6=1,13=1,31=1/2;
 6/7=2,8=2,9=2,10=2,28=1/1;
 7/10=1,18=20,25=1,30=1/1,2,3,16;
 1/7=10,10=4,18=20,19=15,26=6/3(2);
 2/9=110,15=1/2;
 99//99;
 2/9=110,15=1/2;
 3/5=1,6=6,7=101,11=2,25=1,30=1,70=2105,71=1,72=9,74=-5,75=-5,124=41/1,2,3;
 4/5=5,16=3,69=1/1;
 5/5=2,38=5,53=9/2;
 7/30=1/1,2,3,16;
 1/7=10,18=20,19=15,26=6/3(-5);
 2/9=110,15=1/2;
 6/7=2,8=2,9=2,10=2,19=2,28=1/1;
 99/9=1/99;
 Leave Link    1 at Fri Dec 21 13:49:58 2018, MaxMem=  1342177280 cpu:               6.2 elap:               0.4
 (Enter /gpfs/apps/hpc/Apps/Restricted/Gaussian/Rev_A.03/g16/l101.exe)
 ----------------------------------------------------------------------
 cyclohexylimine monoBIP oxidized, with proton on imine and phenol opti
 mization
 ----------------------------------------------------------------------
 Symbolic Z-matrix:
 Charge =  1 Multiplicity = 2
 C                    -0.47583   2.66031   0.23911 
 C                    -1.89849   2.85967   0.151 
 C                    -2.44159   4.14959   0.05216 
 C                    -1.5633    5.2287    0.05119 
 C                    -0.16973   5.05075   0.1497 
 C                     0.40506   3.77742   0.24568 
 C                    -1.43464   0.75791   0.27575 
 H                    -3.51184   4.29819  -0.02132 
 H                    -1.95683   6.23482  -0.02181 
 H                     0.47717   5.92011   0.15295 
 N                    -2.47713   1.6305    0.17999 
 C                    -3.05212  -1.13738   0.34432 
 C                    -1.67478  -0.65645   0.33486 
 C                    -0.62932  -1.57621   0.38284 
 C                    -0.88007  -2.94258   0.46119 
 C                    -2.23626  -3.3834    0.49583 
 C                    -3.32676  -2.54325   0.44476 
 H                     0.38341  -1.19659   0.35592 
 H                    -2.41407  -4.44418   0.56626 
 C                     0.28315  -3.92876   0.48123 
 C                    -4.76498  -3.06649   0.48823 
 O                    -4.03954  -0.28691   0.25829 
 N                    -0.19698   1.34138   0.31442 
 C                     1.8205    3.62618   0.35612 
 H                     2.44815   4.51071   0.37215 
 N                     2.40008   2.46611   0.4438 
 C                     3.85601   2.2434    0.53695 
 C                     4.52167   2.45976  -0.82927 
 C                     4.50202   3.11037   1.62293 
 H                     3.95941   1.19359   0.81892 
 C                     6.02632   2.1814   -0.7434 
 H                     4.35307   3.49887  -1.13494 
 H                     4.04926   1.81634  -1.57604 
 C                     6.00529   2.81914   1.70337 
 H                     4.35494   4.16947   1.38446 
 H                     4.01465   2.91681   2.5821 
 C                     6.69166   3.02504   0.34914 
 H                     6.48636   2.38011  -1.71529 
 H                     6.18258   1.11745  -0.52874 
 H                     6.45735   3.45959   2.46582 
 H                     6.15198   1.78277   2.03079 
 H                     7.75441   2.77692   0.42451 
 H                     6.63007   4.08434   0.07137 
 H                     1.7778    1.64878   0.40967 
 H                    -3.635     0.68936   0.20186 
 C                     1.25415  -3.55189   1.61956 
 H                     2.10594  -4.23672   1.6124 
 H                     1.63484  -2.53499   1.50579 
 H                     0.76055  -3.62749   2.59142 
 C                     1.01902  -3.82128  -0.87306 
 H                     1.39691  -2.81012  -1.0371 
 H                     1.86595  -4.51262  -0.88616 
 H                     0.35177  -4.07803  -1.69944 
 C                    -0.1713   -5.37984   0.68733 
 H                    -0.70142  -5.50537   1.63502 
 H                    -0.82197  -5.72233  -0.12113 
 H                     0.70634  -6.02928   0.70568 
 C                    -4.79573  -4.59758   0.61529 
 H                    -4.32141  -5.08869  -0.23864 
 H                    -4.29758  -4.93577   1.52765 
 H                    -5.83544  -4.92803   0.65735 
 C                    -5.50033  -2.47536   1.71171 
 H                    -4.98951  -2.7513    2.63791 
 H                    -5.56187  -1.38912   1.65761 
 H                    -6.51623  -2.87736   1.75001 
 C                    -5.50367  -2.67857  -0.81189 
 H                    -5.58809  -1.59804  -0.92004 
 H                    -4.97777  -3.07564  -1.68389 
 H                    -6.51055  -3.10413  -0.79603 
 
 ITRead=  0  0  0  0  0  0  0  0  0  0  0  0  0  0  0  0  0  0  0  0
 ITRead=  0  0  0  0  0  0  0  0  0  0  0  0  0  0  0  0  0  0  0  0
 ITRead=  0  0  0  0  0  0  0  0  0  0  0  0  0  0  0  0  0  0  0  0
 ITRead=  0  0  0  0  0  0  0  0  0
 MicOpt= -1 -1 -1 -1 -1 -1 -1 -1 -1 -1 -1 -1 -1 -1 -1 -1 -1 -1 -1 -1
 MicOpt= -1 -1 -1 -1 -1 -1 -1 -1 -1 -1 -1 -1 -1 -1 -1 -1 -1 -1 -1 -1
 MicOpt= -1 -1 -1 -1 -1 -1 -1 -1 -1 -1 -1 -1 -1 -1 -1 -1 -1 -1 -1 -1
 MicOpt= -1 -1 -1 -1 -1 -1 -1 -1 -1
 NAtoms=     69 NQM=       69 NQMF=       0 NMMI=      0 NMMIF=      0
                NMic=       0 NMicF=      0.
                    Isotopes and Nuclear Properties:
 (Nuclear quadrupole moments (NQMom) in fm**2, nuclear magnetic moments (NMagM)
  in nuclear magnetons)

  Atom         1           2           3           4           5           6           7           8           9          10
 IAtWgt=          12          12          12          12          12          12          12           1           1           1
 AtmWgt=  12.0000000  12.0000000  12.0000000  12.0000000  12.0000000  12.0000000  12.0000000   1.0078250   1.0078250   1.0078250
 NucSpn=           0           0           0           0           0           0           0           1           1           1
 AtZEff=  -0.0000000  -0.0000000  -0.0000000  -0.0000000  -0.0000000  -0.0000000  -0.0000000  -0.0000000  -0.0000000  -0.0000000
 NQMom=    0.0000000   0.0000000   0.0000000   0.0000000   0.0000000   0.0000000   0.0000000   0.0000000   0.0000000   0.0000000
 NMagM=    0.0000000   0.0000000   0.0000000   0.0000000   0.0000000   0.0000000   0.0000000   2.7928460   2.7928460   2.7928460
 AtZNuc=   6.0000000   6.0000000   6.0000000   6.0000000   6.0000000   6.0000000   6.0000000   1.0000000   1.0000000   1.0000000

  Atom        11          12          13          14          15          16          17          18          19          20
 IAtWgt=          14          12          12          12          12          12          12           1           1          12
 AtmWgt=  14.0030740  12.0000000  12.0000000  12.0000000  12.0000000  12.0000000  12.0000000   1.0078250   1.0078250  12.0000000
 NucSpn=           2           0           0           0           0           0           0           1           1           0
 AtZEff=  -0.0000000  -0.0000000  -0.0000000  -0.0000000  -0.0000000  -0.0000000  -0.0000000  -0.0000000  -0.0000000  -0.0000000
 NQMom=    2.0440000   0.0000000   0.0000000   0.0000000   0.0000000   0.0000000   0.0000000   0.0000000   0.0000000   0.0000000
 NMagM=    0.4037610   0.0000000   0.0000000   0.0000000   0.0000000   0.0000000   0.0000000   2.7928460   2.7928460   0.0000000
 AtZNuc=   7.0000000   6.0000000   6.0000000   6.0000000   6.0000000   6.0000000   6.0000000   1.0000000   1.0000000   6.0000000

  Atom        21          22          23          24          25          26          27          28          29          30
 IAtWgt=          12          16          14          12           1          14          12          12          12           1
 AtmWgt=  12.0000000  15.9949146  14.0030740  12.0000000   1.0078250  14.0030740  12.0000000  12.0000000  12.0000000   1.0078250
 NucSpn=           0           0           2           0           1           2           0           0           0           1
 AtZEff=  -0.0000000  -0.0000000  -0.0000000  -0.0000000  -0.0000000  -0.0000000  -0.0000000  -0.0000000  -0.0000000  -0.0000000
 NQMom=    0.0000000   0.0000000   2.0440000   0.0000000   0.0000000   2.0440000   0.0000000   0.0000000   0.0000000   0.0000000
 NMagM=    0.0000000   0.0000000   0.4037610   0.0000000   2.7928460   0.4037610   0.0000000   0.0000000   0.0000000   2.7928460
 AtZNuc=   6.0000000   8.0000000   7.0000000   6.0000000   1.0000000   7.0000000   6.0000000   6.0000000   6.0000000   1.0000000

  Atom        31          32          33          34          35          36          37          38          39          40
 IAtWgt=          12           1           1          12           1           1          12           1           1           1
 AtmWgt=  12.0000000   1.0078250   1.0078250  12.0000000   1.0078250   1.0078250  12.0000000   1.0078250   1.0078250   1.0078250
 NucSpn=           0           1           1           0           1           1           0           1           1           1
 AtZEff=  -0.0000000  -0.0000000  -0.0000000  -0.0000000  -0.0000000  -0.0000000  -0.0000000  -0.0000000  -0.0000000  -0.0000000
 NQMom=    0.0000000   0.0000000   0.0000000   0.0000000   0.0000000   0.0000000   0.0000000   0.0000000   0.0000000   0.0000000
 NMagM=    0.0000000   2.7928460   2.7928460   0.0000000   2.7928460   2.7928460   0.0000000   2.7928460   2.7928460   2.7928460
 AtZNuc=   6.0000000   1.0000000   1.0000000   6.0000000   1.0000000   1.0000000   6.0000000   1.0000000   1.0000000   1.0000000

  Atom        41          42          43          44          45          46          47          48          49          50
 IAtWgt=           1           1           1           1           1          12           1           1           1          12
 AtmWgt=   1.0078250   1.0078250   1.0078250   1.0078250   1.0078250  12.0000000   1.0078250   1.0078250   1.0078250  12.0000000
 NucSpn=           1           1           1           1           1           0           1           1           1           0
 AtZEff=  -0.0000000  -0.0000000  -0.0000000  -0.0000000  -0.0000000  -0.0000000  -0.0000000  -0.0000000  -0.0000000  -0.0000000
 NQMom=    0.0000000   0.0000000   0.0000000   0.0000000   0.0000000   0.0000000   0.0000000   0.0000000   0.0000000   0.0000000
 NMagM=    2.7928460   2.7928460   2.7928460   2.7928460   2.7928460   0.0000000   2.7928460   2.7928460   2.7928460   0.0000000
 AtZNuc=   1.0000000   1.0000000   1.0000000   1.0000000   1.0000000   6.0000000   1.0000000   1.0000000   1.0000000   6.0000000

  Atom        51          52          53          54          55          56          57          58          59          60
 IAtWgt=           1           1           1          12           1           1           1          12           1           1
 AtmWgt=   1.0078250   1.0078250   1.0078250  12.0000000   1.0078250   1.0078250   1.0078250  12.0000000   1.0078250   1.0078250
 NucSpn=           1           1           1           0           1           1           1           0           1           1
 AtZEff=  -0.0000000  -0.0000000  -0.0000000  -0.0000000  -0.0000000  -0.0000000  -0.0000000  -0.0000000  -0.0000000  -0.0000000
 NQMom=    0.0000000   0.0000000   0.0000000   0.0000000   0.0000000   0.0000000   0.0000000   0.0000000   0.0000000   0.0000000
 NMagM=    2.7928460   2.7928460   2.7928460   0.0000000   2.7928460   2.7928460   2.7928460   0.0000000   2.7928460   2.7928460
 AtZNuc=   1.0000000   1.0000000   1.0000000   6.0000000   1.0000000   1.0000000   1.0000000   6.0000000   1.0000000   1.0000000

  Atom        61          62          63          64          65          66          67          68          69
 IAtWgt=           1          12           1           1           1          12           1           1           1
 AtmWgt=   1.0078250  12.0000000   1.0078250   1.0078250   1.0078250  12.0000000   1.0078250   1.0078250   1.0078250
 NucSpn=           1           0           1           1           1           0           1           1           1
 AtZEff=  -0.0000000  -0.0000000  -0.0000000  -0.0000000  -0.0000000  -0.0000000  -0.0000000  -0.0000000  -0.0000000
 NQMom=    0.0000000   0.0000000   0.0000000   0.0000000   0.0000000   0.0000000   0.0000000   0.0000000   0.0000000
 NMagM=    2.7928460   0.0000000   2.7928460   2.7928460   2.7928460   0.0000000   2.7928460   2.7928460   2.7928460
 AtZNuc=   1.0000000   6.0000000   1.0000000   1.0000000   1.0000000   6.0000000   1.0000000   1.0000000   1.0000000
 Leave Link  101 at Fri Dec 21 13:49:58 2018, MaxMem=  1342177280 cpu:               5.4 elap:               0.4
 (Enter /gpfs/apps/hpc/Apps/Restricted/Gaussian/Rev_A.03/g16/l103.exe)

 GradGradGradGradGradGradGradGradGradGradGradGradGradGradGradGradGradGrad
 Berny optimization.
 Initialization pass.
                           ----------------------------
                           !    Initial Parameters    !
                           ! (Angstroms and Degrees)  !
 --------------------------                            --------------------------
 ! Name  Definition              Value          Derivative Info.                !
 --------------------------------------------------------------------------------
 ! R1    R(1,2)                  1.4393         calculate D2E/DX2 analytically  !
 ! R2    R(1,6)                  1.4227         calculate D2E/DX2 analytically  !
 ! R3    R(1,23)                 1.3502         calculate D2E/DX2 analytically  !
 ! R4    R(2,3)                  1.4031         calculate D2E/DX2 analytically  !
 ! R5    R(2,11)                 1.3589         calculate D2E/DX2 analytically  !
 ! R6    R(3,4)                  1.3914         calculate D2E/DX2 analytically  !
 ! R7    R(3,8)                  1.083          calculate D2E/DX2 analytically  !
 ! R8    R(4,5)                  1.4083         calculate D2E/DX2 analytically  !
 ! R9    R(4,9)                  1.0828         calculate D2E/DX2 analytically  !
 ! R10   R(5,6)                  1.4003         calculate D2E/DX2 analytically  !
 ! R11   R(5,10)                 1.0836         calculate D2E/DX2 analytically  !
 ! R12   R(6,24)                 1.4278         calculate D2E/DX2 analytically  !
 ! R13   R(7,11)                 1.3629         calculate D2E/DX2 analytically  !
 ! R14   R(7,13)                 1.4358         calculate D2E/DX2 analytically  !
 ! R15   R(7,23)                 1.3688         calculate D2E/DX2 analytically  !
 ! R16   R(12,13)                1.4589         calculate D2E/DX2 analytically  !
 ! R17   R(12,17)                1.436          calculate D2E/DX2 analytically  !
 ! R18   R(12,22)                1.306          calculate D2E/DX2 analytically  !
 ! R19   R(13,14)                1.3933         calculate D2E/DX2 analytically  !
 ! R20   R(14,15)                1.3914         calculate D2E/DX2 analytically  !
 ! R21   R(14,18)                1.0819         calculate D2E/DX2 analytically  !
 ! R22   R(15,16)                1.4265         calculate D2E/DX2 analytically  !
 ! R23   R(15,20)                1.5251         calculate D2E/DX2 analytically  !
 ! R24   R(16,17)                1.3776         calculate D2E/DX2 analytically  !
 ! R25   R(16,19)                1.0779         calculate D2E/DX2 analytically  !
 ! R26   R(17,21)                1.5311         calculate D2E/DX2 analytically  !
 ! R27   R(20,46)                1.5429         calculate D2E/DX2 analytically  !
 ! R28   R(20,50)                1.545          calculate D2E/DX2 analytically  !
 ! R29   R(20,54)                1.5345         calculate D2E/DX2 analytically  !
 ! R30   R(21,58)                1.5367         calculate D2E/DX2 analytically  !
 ! R31   R(21,62)                1.545          calculate D2E/DX2 analytically  !
 ! R32   R(21,66)                1.5448         calculate D2E/DX2 analytically  !
 ! R33   R(22,45)                1.0583         calculate D2E/DX2 analytically  !
 ! R34   R(24,25)                1.0847         calculate D2E/DX2 analytically  !
 ! R35   R(24,26)                1.2998         calculate D2E/DX2 analytically  !
 ! R36   R(26,27)                1.4758         calculate D2E/DX2 analytically  !
 ! R37   R(26,44)                1.0278         calculate D2E/DX2 analytically  !
 ! R38   R(27,28)                1.5351         calculate D2E/DX2 analytically  !
 ! R39   R(27,29)                1.5324         calculate D2E/DX2 analytically  !
 ! R40   R(27,30)                1.0919         calculate D2E/DX2 analytically  !
 ! R41   R(28,31)                1.5326         calculate D2E/DX2 analytically  !
 ! R42   R(28,32)                1.0962         calculate D2E/DX2 analytically  !
 ! R43   R(28,33)                1.0931         calculate D2E/DX2 analytically  !
 ! R44   R(29,34)                1.5333         calculate D2E/DX2 analytically  !
 ! R45   R(29,35)                1.0955         calculate D2E/DX2 analytically  !
 ! R46   R(29,36)                1.0932         calculate D2E/DX2 analytically  !
 ! R47   R(31,37)                1.5323         calculate D2E/DX2 analytically  !
 ! R48   R(31,38)                1.0935         calculate D2E/DX2 analytically  !
 ! R49   R(31,39)                1.0966         calculate D2E/DX2 analytically  !
 ! R50   R(34,37)                1.5321         calculate D2E/DX2 analytically  !
 ! R51   R(34,40)                1.0935         calculate D2E/DX2 analytically  !
 ! R52   R(34,41)                1.0967         calculate D2E/DX2 analytically  !
 ! R53   R(37,42)                1.0939         calculate D2E/DX2 analytically  !
 ! R54   R(37,43)                1.0968         calculate D2E/DX2 analytically  !
 ! R55   R(46,47)                1.093          calculate D2E/DX2 analytically  !
 ! R56   R(46,48)                1.0918         calculate D2E/DX2 analytically  !
 ! R57   R(46,49)                1.0926         calculate D2E/DX2 analytically  !
 ! R58   R(50,51)                1.0918         calculate D2E/DX2 analytically  !
 ! R59   R(50,52)                1.0934         calculate D2E/DX2 analytically  !
 ! R60   R(50,53)                1.0927         calculate D2E/DX2 analytically  !
 ! R61   R(54,55)                1.0931         calculate D2E/DX2 analytically  !
 ! R62   R(54,56)                1.0928         calculate D2E/DX2 analytically  !
 ! R63   R(54,57)                1.092          calculate D2E/DX2 analytically  !
 ! R64   R(58,59)                1.0933         calculate D2E/DX2 analytically  !
 ! R65   R(58,60)                1.0931         calculate D2E/DX2 analytically  !
 ! R66   R(58,61)                1.0918         calculate D2E/DX2 analytically  !
 ! R67   R(62,63)                1.0931         calculate D2E/DX2 analytically  !
 ! R68   R(62,64)                1.0893         calculate D2E/DX2 analytically  !
 ! R69   R(62,65)                1.0932         calculate D2E/DX2 analytically  !
 ! R70   R(66,67)                1.0892         calculate D2E/DX2 analytically  !
 ! R71   R(66,68)                1.093          calculate D2E/DX2 analytically  !
 ! R72   R(66,69)                1.0932         calculate D2E/DX2 analytically  !
 ! A1    A(2,1,6)              120.2358         calculate D2E/DX2 analytically  !
 ! A2    A(2,1,23)             110.0518         calculate D2E/DX2 analytically  !
 ! A3    A(6,1,23)             129.711          calculate D2E/DX2 analytically  !
 ! A4    A(1,2,3)              120.9486         calculate D2E/DX2 analytically  !
 ! A5    A(1,2,11)             107.1163         calculate D2E/DX2 analytically  !
 ! A6    A(3,2,11)             131.9345         calculate D2E/DX2 analytically  !
 ! A7    A(2,3,4)              117.9529         calculate D2E/DX2 analytically  !
 ! A8    A(2,3,8)              120.8932         calculate D2E/DX2 analytically  !
 ! A9    A(4,3,8)              121.1539         calculate D2E/DX2 analytically  !
 ! A10   A(3,4,5)              121.7745         calculate D2E/DX2 analytically  !
 ! A11   A(3,4,9)              119.425          calculate D2E/DX2 analytically  !
 ! A12   A(5,4,9)              118.7997         calculate D2E/DX2 analytically  !
 ! A13   A(4,5,6)              121.7253         calculate D2E/DX2 analytically  !
 ! A14   A(4,5,10)             119.3111         calculate D2E/DX2 analytically  !
 ! A15   A(6,5,10)             118.9635         calculate D2E/DX2 analytically  !
 ! A16   A(1,6,5)              117.3574         calculate D2E/DX2 analytically  !
 ! A17   A(1,6,24)             122.0744         calculate D2E/DX2 analytically  !
 ! A18   A(5,6,24)             120.5663         calculate D2E/DX2 analytically  !
 ! A19   A(11,7,13)            120.3748         calculate D2E/DX2 analytically  !
 ! A20   A(11,7,23)            114.8785         calculate D2E/DX2 analytically  !
 ! A21   A(13,7,23)            124.746          calculate D2E/DX2 analytically  !
 ! A22   A(2,11,7)             104.7691         calculate D2E/DX2 analytically  !
 ! A23   A(13,12,17)           120.2489         calculate D2E/DX2 analytically  !
 ! A24   A(13,12,22)           119.913          calculate D2E/DX2 analytically  !
 ! A25   A(17,12,22)           119.8379         calculate D2E/DX2 analytically  !
 ! A26   A(7,13,12)            118.874          calculate D2E/DX2 analytically  !
 ! A27   A(7,13,14)            121.7485         calculate D2E/DX2 analytically  !
 ! A28   A(12,13,14)           119.3775         calculate D2E/DX2 analytically  !
 ! A29   A(13,14,15)           120.9958         calculate D2E/DX2 analytically  !
 ! A30   A(13,14,18)           118.0281         calculate D2E/DX2 analytically  !
 ! A31   A(15,14,18)           120.9761         calculate D2E/DX2 analytically  !
 ! A32   A(14,15,16)           118.4362         calculate D2E/DX2 analytically  !
 ! A33   A(14,15,20)           119.8859         calculate D2E/DX2 analytically  !
 ! A34   A(16,15,20)           121.6674         calculate D2E/DX2 analytically  !
 ! A35   A(15,16,17)           124.2809         calculate D2E/DX2 analytically  !
 ! A36   A(15,16,19)           117.5515         calculate D2E/DX2 analytically  !
 ! A37   A(17,16,19)           118.1676         calculate D2E/DX2 analytically  !
 ! A38   A(12,17,16)           116.6345         calculate D2E/DX2 analytically  !
 ! A39   A(12,17,21)           121.0801         calculate D2E/DX2 analytically  !
 ! A40   A(16,17,21)           122.2852         calculate D2E/DX2 analytically  !
 ! A41   A(15,20,46)           109.3744         calculate D2E/DX2 analytically  !
 ! A42   A(15,20,50)           107.8637         calculate D2E/DX2 analytically  !
 ! A43   A(15,20,54)           112.7901         calculate D2E/DX2 analytically  !
 ! A44   A(46,20,50)           109.2664         calculate D2E/DX2 analytically  !
 ! A45   A(46,20,54)           108.5583         calculate D2E/DX2 analytically  !
 ! A46   A(50,20,54)           108.9392         calculate D2E/DX2 analytically  !
 ! A47   A(17,21,58)           111.2017         calculate D2E/DX2 analytically  !
 ! A48   A(17,21,62)           109.8052         calculate D2E/DX2 analytically  !
 ! A49   A(17,21,66)           109.8442         calculate D2E/DX2 analytically  !
 ! A50   A(58,21,62)           107.8314         calculate D2E/DX2 analytically  !
 ! A51   A(58,21,66)           108.0725         calculate D2E/DX2 analytically  !
 ! A52   A(62,21,66)           110.0469         calculate D2E/DX2 analytically  !
 ! A53   A(12,22,45)           108.3746         calculate D2E/DX2 analytically  !
 ! A54   A(1,23,7)             103.1837         calculate D2E/DX2 analytically  !
 ! A55   A(6,24,25)            119.2356         calculate D2E/DX2 analytically  !
 ! A56   A(6,24,26)            122.8075         calculate D2E/DX2 analytically  !
 ! A57   A(25,24,26)           117.9565         calculate D2E/DX2 analytically  !
 ! A58   A(24,26,27)           125.3701         calculate D2E/DX2 analytically  !
 ! A59   A(24,26,44)           115.9467         calculate D2E/DX2 analytically  !
 ! A60   A(27,26,44)           118.6441         calculate D2E/DX2 analytically  !
 ! A61   A(26,27,28)           110.5086         calculate D2E/DX2 analytically  !
 ! A62   A(26,27,29)           112.0384         calculate D2E/DX2 analytically  !
 ! A63   A(26,27,30)           104.7623         calculate D2E/DX2 analytically  !
 ! A64   A(28,27,29)           111.603          calculate D2E/DX2 analytically  !
 ! A65   A(28,27,30)           108.922          calculate D2E/DX2 analytically  !
 ! A66   A(29,27,30)           108.7236         calculate D2E/DX2 analytically  !
 ! A67   A(27,28,31)           110.5033         calculate D2E/DX2 analytically  !
 ! A68   A(27,28,32)           108.3664         calculate D2E/DX2 analytically  !
 ! A69   A(27,28,33)           109.7341         calculate D2E/DX2 analytically  !
 ! A70   A(31,28,32)           109.8039         calculate D2E/DX2 analytically  !
 ! A71   A(31,28,33)           110.8337         calculate D2E/DX2 analytically  !
 ! A72   A(32,28,33)           107.5184         calculate D2E/DX2 analytically  !
 ! A73   A(27,29,34)           110.0608         calculate D2E/DX2 analytically  !
 ! A74   A(27,29,35)           109.6382         calculate D2E/DX2 analytically  !
 ! A75   A(27,29,36)           109.4927         calculate D2E/DX2 analytically  !
 ! A76   A(34,29,35)           109.066          calculate D2E/DX2 analytically  !
 ! A77   A(34,29,36)           110.9427         calculate D2E/DX2 analytically  !
 ! A78   A(35,29,36)           107.5967         calculate D2E/DX2 analytically  !
 ! A79   A(28,31,37)           111.4834         calculate D2E/DX2 analytically  !
 ! A80   A(28,31,38)           109.2834         calculate D2E/DX2 analytically  !
 ! A81   A(28,31,39)           109.0924         calculate D2E/DX2 analytically  !
 ! A82   A(37,31,38)           110.5477         calculate D2E/DX2 analytically  !
 ! A83   A(37,31,39)           109.4344         calculate D2E/DX2 analytically  !
 ! A84   A(38,31,39)           106.8796         calculate D2E/DX2 analytically  !
 ! A85   A(29,34,37)           111.5492         calculate D2E/DX2 analytically  !
 ! A86   A(29,34,40)           109.3066         calculate D2E/DX2 analytically  !
 ! A87   A(29,34,41)           109.0428         calculate D2E/DX2 analytically  !
 ! A88   A(37,34,40)           110.6323         calculate D2E/DX2 analytically  !
 ! A89   A(37,34,41)           109.3267         calculate D2E/DX2 analytically  !
 ! A90   A(40,34,41)           106.8576         calculate D2E/DX2 analytically  !
 ! A91   A(31,37,34)           111.2048         calculate D2E/DX2 analytically  !
 ! A92   A(31,37,42)           110.2477         calculate D2E/DX2 analytically  !
 ! A93   A(31,37,43)           109.0731         calculate D2E/DX2 analytically  !
 ! A94   A(34,37,42)           110.1101         calculate D2E/DX2 analytically  !
 ! A95   A(34,37,43)           109.176          calculate D2E/DX2 analytically  !
 ! A96   A(42,37,43)           106.9206         calculate D2E/DX2 analytically  !
 ! A97   A(20,46,47)           109.4251         calculate D2E/DX2 analytically  !
 ! A98   A(20,46,48)           111.7194         calculate D2E/DX2 analytically  !
 ! A99   A(20,46,49)           110.7946         calculate D2E/DX2 analytically  !
 ! A100  A(47,46,48)           108.1302         calculate D2E/DX2 analytically  !
 ! A101  A(47,46,49)           108.3331         calculate D2E/DX2 analytically  !
 ! A102  A(48,46,49)           108.3398         calculate D2E/DX2 analytically  !
 ! A103  A(20,50,51)           111.1584         calculate D2E/DX2 analytically  !
 ! A104  A(20,50,52)           109.5992         calculate D2E/DX2 analytically  !
 ! A105  A(20,50,53)           110.837          calculate D2E/DX2 analytically  !
 ! A106  A(51,50,52)           108.4025         calculate D2E/DX2 analytically  !
 ! A107  A(51,50,53)           108.3803         calculate D2E/DX2 analytically  !
 ! A108  A(52,50,53)           108.384          calculate D2E/DX2 analytically  !
 ! A109  A(20,54,55)           111.6333         calculate D2E/DX2 analytically  !
 ! A110  A(20,54,56)           111.9217         calculate D2E/DX2 analytically  !
 ! A111  A(20,54,57)           109.0657         calculate D2E/DX2 analytically  !
 ! A112  A(55,54,56)           108.4595         calculate D2E/DX2 analytically  !
 ! A113  A(55,54,57)           107.8725         calculate D2E/DX2 analytically  !
 ! A114  A(56,54,57)           107.7329         calculate D2E/DX2 analytically  !
 ! A115  A(21,58,59)           111.9808         calculate D2E/DX2 analytically  !
 ! A116  A(21,58,60)           111.6017         calculate D2E/DX2 analytically  !
 ! A117  A(21,58,61)           108.8934         calculate D2E/DX2 analytically  !
 ! A118  A(59,58,60)           108.3737         calculate D2E/DX2 analytically  !
 ! A119  A(59,58,61)           107.895          calculate D2E/DX2 analytically  !
 ! A120  A(60,58,61)           107.9505         calculate D2E/DX2 analytically  !
 ! A121  A(21,62,63)           110.6073         calculate D2E/DX2 analytically  !
 ! A122  A(21,62,64)           111.6589         calculate D2E/DX2 analytically  !
 ! A123  A(21,62,65)           109.2288         calculate D2E/DX2 analytically  !
 ! A124  A(63,62,64)           108.6748         calculate D2E/DX2 analytically  !
 ! A125  A(63,62,65)           108.1642         calculate D2E/DX2 analytically  !
 ! A126  A(64,62,65)           108.4169         calculate D2E/DX2 analytically  !
 ! A127  A(21,66,67)           111.6992         calculate D2E/DX2 analytically  !
 ! A128  A(21,66,68)           110.4959         calculate D2E/DX2 analytically  !
 ! A129  A(21,66,69)           109.2956         calculate D2E/DX2 analytically  !
 ! A130  A(67,66,68)           108.5704         calculate D2E/DX2 analytically  !
 ! A131  A(67,66,69)           108.4347         calculate D2E/DX2 analytically  !
 ! A132  A(68,66,69)           108.2592         calculate D2E/DX2 analytically  !
 ! D1    D(6,1,2,3)              0.867          calculate D2E/DX2 analytically  !
 ! D2    D(6,1,2,11)          -179.3779         calculate D2E/DX2 analytically  !
 ! D3    D(23,1,2,3)          -179.5174         calculate D2E/DX2 analytically  !
 ! D4    D(23,1,2,11)            0.2377         calculate D2E/DX2 analytically  !
 ! D5    D(2,1,6,5)             -0.6541         calculate D2E/DX2 analytically  !
 ! D6    D(2,1,6,24)           178.8373         calculate D2E/DX2 analytically  !
 ! D7    D(23,1,6,5)           179.8153         calculate D2E/DX2 analytically  !
 ! D8    D(23,1,6,24)           -0.6933         calculate D2E/DX2 analytically  !
 ! D9    D(2,1,23,7)            -0.1568         calculate D2E/DX2 analytically  !
 ! D10   D(6,1,23,7)           179.4115         calculate D2E/DX2 analytically  !
 ! D11   D(1,2,3,4)             -0.4287         calculate D2E/DX2 analytically  !
 ! D12   D(1,2,3,8)            179.5532         calculate D2E/DX2 analytically  !
 ! D13   D(11,2,3,4)           179.8859         calculate D2E/DX2 analytically  !
 ! D14   D(11,2,3,8)            -0.1322         calculate D2E/DX2 analytically  !
 ! D15   D(1,2,11,7)            -0.2055         calculate D2E/DX2 analytically  !
 ! D16   D(3,2,11,7)           179.5121         calculate D2E/DX2 analytically  !
 ! D17   D(2,3,4,5)             -0.1912         calculate D2E/DX2 analytically  !
 ! D18   D(2,3,4,9)           -179.8638         calculate D2E/DX2 analytically  !
 ! D19   D(8,3,4,5)            179.827          calculate D2E/DX2 analytically  !
 ! D20   D(8,3,4,9)              0.1544         calculate D2E/DX2 analytically  !
 ! D21   D(3,4,5,6)              0.3916         calculate D2E/DX2 analytically  !
 ! D22   D(3,4,5,10)          -179.5221         calculate D2E/DX2 analytically  !
 ! D23   D(9,4,5,6)           -179.9339         calculate D2E/DX2 analytically  !
 ! D24   D(9,4,5,10)             0.1525         calculate D2E/DX2 analytically  !
 ! D25   D(4,5,6,1)              0.0455         calculate D2E/DX2 analytically  !
 ! D26   D(4,5,6,24)          -179.4541         calculate D2E/DX2 analytically  !
 ! D27   D(10,5,6,1)           179.9594         calculate D2E/DX2 analytically  !
 ! D28   D(10,5,6,24)            0.4599         calculate D2E/DX2 analytically  !
 ! D29   D(1,6,24,25)         -179.0415         calculate D2E/DX2 analytically  !
 ! D30   D(1,6,24,26)            0.7267         calculate D2E/DX2 analytically  !
 ! D31   D(5,6,24,25)            0.434          calculate D2E/DX2 analytically  !
 ! D32   D(5,6,24,26)         -179.7979         calculate D2E/DX2 analytically  !
 ! D33   D(13,7,11,2)          179.828          calculate D2E/DX2 analytically  !
 ! D34   D(23,7,11,2)            0.1199         calculate D2E/DX2 analytically  !
 ! D35   D(11,7,13,12)          -2.412          calculate D2E/DX2 analytically  !
 ! D36   D(11,7,13,14)         177.5726         calculate D2E/DX2 analytically  !
 ! D37   D(23,7,13,12)         177.2657         calculate D2E/DX2 analytically  !
 ! D38   D(23,7,13,14)          -2.7496         calculate D2E/DX2 analytically  !
 ! D39   D(11,7,23,1)            0.0259         calculate D2E/DX2 analytically  !
 ! D40   D(13,7,23,1)         -179.6676         calculate D2E/DX2 analytically  !
 ! D41   D(17,12,13,7)        -178.0627         calculate D2E/DX2 analytically  !
 ! D42   D(17,12,13,14)          1.9523         calculate D2E/DX2 analytically  !
 ! D43   D(22,12,13,7)           2.084          calculate D2E/DX2 analytically  !
 ! D44   D(22,12,13,14)       -177.901          calculate D2E/DX2 analytically  !
 ! D45   D(13,12,17,16)         -1.5438         calculate D2E/DX2 analytically  !
 ! D46   D(13,12,17,21)        178.6054         calculate D2E/DX2 analytically  !
 ! D47   D(22,12,17,16)        178.3096         calculate D2E/DX2 analytically  !
 ! D48   D(22,12,17,21)         -1.5411         calculate D2E/DX2 analytically  !
 ! D49   D(13,12,22,45)         -0.6369         calculate D2E/DX2 analytically  !
 ! D50   D(17,12,22,45)        179.5092         calculate D2E/DX2 analytically  !
 ! D51   D(7,13,14,15)         178.9728         calculate D2E/DX2 analytically  !
 ! D52   D(7,13,14,18)          -1.114          calculate D2E/DX2 analytically  !
 ! D53   D(12,13,14,15)         -1.0426         calculate D2E/DX2 analytically  !
 ! D54   D(12,13,14,18)        178.8706         calculate D2E/DX2 analytically  !
 ! D55   D(13,14,15,16)         -0.1988         calculate D2E/DX2 analytically  !
 ! D56   D(13,14,15,20)        178.6487         calculate D2E/DX2 analytically  !
 ! D57   D(18,14,15,16)        179.8906         calculate D2E/DX2 analytically  !
 ! D58   D(18,14,15,20)         -1.262          calculate D2E/DX2 analytically  !
 ! D59   D(14,15,16,17)          0.605          calculate D2E/DX2 analytically  !
 ! D60   D(14,15,16,19)       -179.4181         calculate D2E/DX2 analytically  !
 ! D61   D(20,15,16,17)       -178.221          calculate D2E/DX2 analytically  !
 ! D62   D(20,15,16,19)          1.756          calculate D2E/DX2 analytically  !
 ! D63   D(14,15,20,46)         54.3228         calculate D2E/DX2 analytically  !
 ! D64   D(14,15,20,50)        -64.4162         calculate D2E/DX2 analytically  !
 ! D65   D(14,15,20,54)        175.2329         calculate D2E/DX2 analytically  !
 ! D66   D(16,15,20,46)       -126.868          calculate D2E/DX2 analytically  !
 ! D67   D(16,15,20,50)        114.393          calculate D2E/DX2 analytically  !
 ! D68   D(16,15,20,54)         -5.9579         calculate D2E/DX2 analytically  !
 ! D69   D(15,16,17,12)          0.2861         calculate D2E/DX2 analytically  !
 ! D70   D(15,16,17,21)       -179.865          calculate D2E/DX2 analytically  !
 ! D71   D(19,16,17,12)       -179.6906         calculate D2E/DX2 analytically  !
 ! D72   D(19,16,17,21)          0.1582         calculate D2E/DX2 analytically  !
 ! D73   D(12,17,21,58)       -179.2456         calculate D2E/DX2 analytically  !
 ! D74   D(12,17,21,62)        -59.9843         calculate D2E/DX2 analytically  !
 ! D75   D(12,17,21,66)         61.1676         calculate D2E/DX2 analytically  !
 ! D76   D(16,17,21,58)          0.9122         calculate D2E/DX2 analytically  !
 ! D77   D(16,17,21,62)        120.1735         calculate D2E/DX2 analytically  !
 ! D78   D(16,17,21,66)       -118.6747         calculate D2E/DX2 analytically  !
 ! D79   D(15,20,46,47)       -178.0172         calculate D2E/DX2 analytically  !
 ! D80   D(15,20,46,48)        -58.3047         calculate D2E/DX2 analytically  !
 ! D81   D(15,20,46,49)         62.5972         calculate D2E/DX2 analytically  !
 ! D82   D(50,20,46,47)        -60.1531         calculate D2E/DX2 analytically  !
 ! D83   D(50,20,46,48)         59.5594         calculate D2E/DX2 analytically  !
 ! D84   D(50,20,46,49)       -179.5388         calculate D2E/DX2 analytically  !
 ! D85   D(54,20,46,47)         58.5341         calculate D2E/DX2 analytically  !
 ! D86   D(54,20,46,48)        178.2466         calculate D2E/DX2 analytically  !
 ! D87   D(54,20,46,49)        -60.8515         calculate D2E/DX2 analytically  !
 ! D88   D(15,20,50,51)         59.7207         calculate D2E/DX2 analytically  !
 ! D89   D(15,20,50,52)        179.5318         calculate D2E/DX2 analytically  !
 ! D90   D(15,20,50,53)        -60.8822         calculate D2E/DX2 analytically  !
 ! D91   D(46,20,50,51)        -59.0872         calculate D2E/DX2 analytically  !
 ! D92   D(46,20,50,52)         60.7239         calculate D2E/DX2 analytically  !
 ! D93   D(46,20,50,53)       -179.6901         calculate D2E/DX2 analytically  !
 ! D94   D(54,20,50,51)       -177.537          calculate D2E/DX2 analytically  !
 ! D95   D(54,20,50,52)        -57.7259         calculate D2E/DX2 analytically  !
 ! D96   D(54,20,50,53)         61.8601         calculate D2E/DX2 analytically  !
 ! D97   D(15,20,54,55)        -60.113          calculate D2E/DX2 analytically  !
 ! D98   D(15,20,54,56)         61.6754         calculate D2E/DX2 analytically  !
 ! D99   D(15,20,54,57)       -179.2164         calculate D2E/DX2 analytically  !
 ! D100  D(46,20,54,55)         61.2613         calculate D2E/DX2 analytically  !
 ! D101  D(46,20,54,56)       -176.9503         calculate D2E/DX2 analytically  !
 ! D102  D(46,20,54,57)        -57.842          calculate D2E/DX2 analytically  !
 ! D103  D(50,20,54,55)       -179.8452         calculate D2E/DX2 analytically  !
 ! D104  D(50,20,54,56)        -58.0568         calculate D2E/DX2 analytically  !
 ! D105  D(50,20,54,57)         61.0514         calculate D2E/DX2 analytically  !
 ! D106  D(17,21,58,59)        -61.573          calculate D2E/DX2 analytically  !
 ! D107  D(17,21,58,60)         60.1239         calculate D2E/DX2 analytically  !
 ! D108  D(17,21,58,61)        179.1933         calculate D2E/DX2 analytically  !
 ! D109  D(62,21,58,59)        177.9934         calculate D2E/DX2 analytically  !
 ! D110  D(62,21,58,60)        -60.3098         calculate D2E/DX2 analytically  !
 ! D111  D(62,21,58,61)         58.7596         calculate D2E/DX2 analytically  !
 ! D112  D(66,21,58,59)         59.0634         calculate D2E/DX2 analytically  !
 ! D113  D(66,21,58,60)       -179.2398         calculate D2E/DX2 analytically  !
 ! D114  D(66,21,58,61)        -60.1704         calculate D2E/DX2 analytically  !
 ! D115  D(17,21,62,63)        -59.4297         calculate D2E/DX2 analytically  !
 ! D116  D(17,21,62,64)         61.728          calculate D2E/DX2 analytically  !
 ! D117  D(17,21,62,65)       -178.3693         calculate D2E/DX2 analytically  !
 ! D118  D(58,21,62,63)         61.8776         calculate D2E/DX2 analytically  !
 ! D119  D(58,21,62,64)       -176.9647         calculate D2E/DX2 analytically  !
 ! D120  D(58,21,62,65)        -57.062          calculate D2E/DX2 analytically  !
 ! D121  D(66,21,62,63)        179.5404         calculate D2E/DX2 analytically  !
 ! D122  D(66,21,62,64)        -59.3019         calculate D2E/DX2 analytically  !
 ! D123  D(66,21,62,65)         60.6008         calculate D2E/DX2 analytically  !
 ! D124  D(17,21,66,67)        -63.1633         calculate D2E/DX2 analytically  !
 ! D125  D(17,21,66,68)         57.8121         calculate D2E/DX2 analytically  !
 ! D126  D(17,21,66,69)        176.8422         calculate D2E/DX2 analytically  !
 ! D127  D(58,21,66,67)        175.3565         calculate D2E/DX2 analytically  !
 ! D128  D(58,21,66,68)        -63.6681         calculate D2E/DX2 analytically  !
 ! D129  D(58,21,66,69)         55.362          calculate D2E/DX2 analytically  !
 ! D130  D(62,21,66,67)         57.8432         calculate D2E/DX2 analytically  !
 ! D131  D(62,21,66,68)        178.8186         calculate D2E/DX2 analytically  !
 ! D132  D(62,21,66,69)        -62.1513         calculate D2E/DX2 analytically  !
 ! D133  D(6,24,26,27)         178.9059         calculate D2E/DX2 analytically  !
 ! D134  D(6,24,26,44)           1.2199         calculate D2E/DX2 analytically  !
 ! D135  D(25,24,26,27)         -1.3231         calculate D2E/DX2 analytically  !
 ! D136  D(25,24,26,44)       -179.0091         calculate D2E/DX2 analytically  !
 ! D137  D(24,26,27,28)        -75.1857         calculate D2E/DX2 analytically  !
 ! D138  D(24,26,27,29)         49.9485         calculate D2E/DX2 analytically  !
 ! D139  D(24,26,27,30)        167.6457         calculate D2E/DX2 analytically  !
 ! D140  D(44,26,27,28)        102.4434         calculate D2E/DX2 analytically  !
 ! D141  D(44,26,27,29)       -132.4224         calculate D2E/DX2 analytically  !
 ! D142  D(44,26,27,30)        -14.7253         calculate D2E/DX2 analytically  !
 ! D143  D(26,27,28,31)       -178.0494         calculate D2E/DX2 analytically  !
 ! D144  D(26,27,28,32)         61.6003         calculate D2E/DX2 analytically  !
 ! D145  D(26,27,28,33)        -55.5325         calculate D2E/DX2 analytically  !
 ! D146  D(29,27,28,31)         56.5697         calculate D2E/DX2 analytically  !
 ! D147  D(29,27,28,32)        -63.7805         calculate D2E/DX2 analytically  !
 ! D148  D(29,27,28,33)        179.0866         calculate D2E/DX2 analytically  !
 ! D149  D(30,27,28,31)        -63.4783         calculate D2E/DX2 analytically  !
 ! D150  D(30,27,28,32)        176.1715         calculate D2E/DX2 analytically  !
 ! D151  D(30,27,28,33)         59.0386         calculate D2E/DX2 analytically  !
 ! D152  D(26,27,29,34)        178.6511         calculate D2E/DX2 analytically  !
 ! D153  D(26,27,29,35)        -61.3793         calculate D2E/DX2 analytically  !
 ! D154  D(26,27,29,36)         56.4483         calculate D2E/DX2 analytically  !
 ! D155  D(28,27,29,34)        -56.8201         calculate D2E/DX2 analytically  !
 ! D156  D(28,27,29,35)         63.1494         calculate D2E/DX2 analytically  !
 ! D157  D(28,27,29,36)       -179.0229         calculate D2E/DX2 analytically  !
 ! D158  D(30,27,29,34)         63.3445         calculate D2E/DX2 analytically  !
 ! D159  D(30,27,29,35)       -176.6859         calculate D2E/DX2 analytically  !
 ! D160  D(30,27,29,36)        -58.8583         calculate D2E/DX2 analytically  !
 ! D161  D(27,28,31,37)        -55.2374         calculate D2E/DX2 analytically  !
 ! D162  D(27,28,31,38)       -177.7382         calculate D2E/DX2 analytically  !
 ! D163  D(27,28,31,39)         65.7342         calculate D2E/DX2 analytically  !
 ! D164  D(32,28,31,37)         64.2485         calculate D2E/DX2 analytically  !
 ! D165  D(32,28,31,38)        -58.2523         calculate D2E/DX2 analytically  !
 ! D166  D(32,28,31,39)       -174.7799         calculate D2E/DX2 analytically  !
 ! D167  D(33,28,31,37)       -177.1087         calculate D2E/DX2 analytically  !
 ! D168  D(33,28,31,38)         60.3904         calculate D2E/DX2 analytically  !
 ! D169  D(33,28,31,39)        -56.1371         calculate D2E/DX2 analytically  !
 ! D170  D(27,29,34,37)         56.0834         calculate D2E/DX2 analytically  !
 ! D171  D(27,29,34,40)        178.7513         calculate D2E/DX2 analytically  !
 ! D172  D(27,29,34,41)        -64.7626         calculate D2E/DX2 analytically  !
 ! D173  D(35,29,34,37)        -64.2322         calculate D2E/DX2 analytically  !
 ! D174  D(35,29,34,40)         58.4357         calculate D2E/DX2 analytically  !
 ! D175  D(35,29,34,41)        174.9218         calculate D2E/DX2 analytically  !
 ! D176  D(36,29,34,37)        177.424          calculate D2E/DX2 analytically  !
 ! D177  D(36,29,34,40)        -59.9081         calculate D2E/DX2 analytically  !
 ! D178  D(36,29,34,41)         56.578          calculate D2E/DX2 analytically  !
 ! D179  D(28,31,37,34)         54.9388         calculate D2E/DX2 analytically  !
 ! D180  D(28,31,37,42)        177.364          calculate D2E/DX2 analytically  !
 ! D181  D(28,31,37,43)        -65.5211         calculate D2E/DX2 analytically  !
 ! D182  D(38,31,37,34)        176.7105         calculate D2E/DX2 analytically  !
 ! D183  D(38,31,37,42)        -60.8643         calculate D2E/DX2 analytically  !
 ! D184  D(38,31,37,43)         56.2506         calculate D2E/DX2 analytically  !
 ! D185  D(39,31,37,34)        -65.8329         calculate D2E/DX2 analytically  !
 ! D186  D(39,31,37,42)         56.5924         calculate D2E/DX2 analytically  !
 ! D187  D(39,31,37,43)        173.7073         calculate D2E/DX2 analytically  !
 ! D188  D(29,34,37,31)        -55.4815         calculate D2E/DX2 analytically  !
 ! D189  D(29,34,37,42)       -177.9862         calculate D2E/DX2 analytically  !
 ! D190  D(29,34,37,43)         64.9176         calculate D2E/DX2 analytically  !
 ! D191  D(40,34,37,31)       -177.387          calculate D2E/DX2 analytically  !
 ! D192  D(40,34,37,42)         60.1083         calculate D2E/DX2 analytically  !
 ! D193  D(40,34,37,43)        -56.9878         calculate D2E/DX2 analytically  !
 ! D194  D(41,34,37,31)         65.1984         calculate D2E/DX2 analytically  !
 ! D195  D(41,34,37,42)        -57.3062         calculate D2E/DX2 analytically  !
 ! D196  D(41,34,37,43)       -174.4024         calculate D2E/DX2 analytically  !
 --------------------------------------------------------------------------------
 Trust Radius=3.00D-01 FncErr=5.00D-06 GrdErr=5.00D-06 EigMax=2.50D+02 EigMin=1.00D-04
 Number of steps in this run=    410 maximum allowed number of steps=    414.
 GradGradGradGradGradGradGradGradGradGradGradGradGradGradGradGradGradGrad

 Leave Link  103 at Fri Dec 21 13:49:58 2018, MaxMem=  1342177280 cpu:               0.9 elap:               0.1
 (Enter /gpfs/apps/hpc/Apps/Restricted/Gaussian/Rev_A.03/g16/l202.exe)
 Symmetry turned off by external request.
 Stoichiometry    C28H37N3O(1+,2)
 Framework group  C1[X(C28H37N3O)]
 Deg. of freedom   201
 Full point group                 C1      NOp   1
                          Input orientation:                          
 ---------------------------------------------------------------------
 Center     Atomic      Atomic             Coordinates (Angstroms)
 Number     Number       Type             X           Y           Z
 ---------------------------------------------------------------------
      1          6           0       -0.475830    2.660309    0.239111
      2          6           0       -1.898492    2.859671    0.151002
      3          6           0       -2.441587    4.149591    0.052158
      4          6           0       -1.563302    5.228703    0.051191
      5          6           0       -0.169729    5.050751    0.149701
      6          6           0        0.405059    3.777419    0.245675
      7          6           0       -1.434639    0.757909    0.275754
      8          1           0       -3.511837    4.298193   -0.021320
      9          1           0       -1.956833    6.234822   -0.021812
     10          1           0        0.477169    5.920106    0.152952
     11          7           0       -2.477134    1.630498    0.179988
     12          6           0       -3.052119   -1.137378    0.344324
     13          6           0       -1.674778   -0.656449    0.334859
     14          6           0       -0.629315   -1.576211    0.382838
     15          6           0       -0.880069   -2.942582    0.461191
     16          6           0       -2.236264   -3.383402    0.495832
     17          6           0       -3.326760   -2.543248    0.444755
     18          1           0        0.383414   -1.196590    0.355920
     19          1           0       -2.414068   -4.444184    0.566258
     20          6           0        0.283151   -3.928759    0.481234
     21          6           0       -4.764980   -3.066487    0.488231
     22          8           0       -4.039543   -0.286907    0.258289
     23          7           0       -0.196980    1.341382    0.314422
     24          6           0        1.820502    3.626182    0.356121
     25          1           0        2.448154    4.510714    0.372149
     26          7           0        2.400075    2.466114    0.443801
     27          6           0        3.856012    2.243397    0.536945
     28          6           0        4.521668    2.459765   -0.829269
     29          6           0        4.502018    3.110368    1.622930
     30          1           0        3.959414    1.193585    0.818923
     31          6           0        6.026319    2.181397   -0.743404
     32          1           0        4.353068    3.498870   -1.134939
     33          1           0        4.049262    1.816335   -1.576044
     34          6           0        6.005293    2.819137    1.703373
     35          1           0        4.354938    4.169471    1.384457
     36          1           0        4.014648    2.916809    2.582096
     37          6           0        6.691658    3.025036    0.349136
     38          1           0        6.486360    2.380108   -1.715291
     39          1           0        6.182576    1.117447   -0.528735
     40          1           0        6.457350    3.459586    2.465815
     41          1           0        6.151980    1.782773    2.030790
     42          1           0        7.754412    2.776918    0.424513
     43          1           0        6.630072    4.084337    0.071369
     44          1           0        1.777796    1.648783    0.409670
     45          1           0       -3.635002    0.689358    0.201863
     46          6           0        1.254150   -3.551893    1.619559
     47          1           0        2.105939   -4.236720    1.612399
     48          1           0        1.634842   -2.534991    1.505789
     49          1           0        0.760547   -3.627489    2.591423
     50          6           0        1.019019   -3.821277   -0.873064
     51          1           0        1.396906   -2.810124   -1.037096
     52          1           0        1.865948   -4.512621   -0.886155
     53          1           0        0.351765   -4.078025   -1.699436
     54          6           0       -0.171302   -5.379839    0.687327
     55          1           0       -0.701418   -5.505373    1.635020
     56          1           0       -0.821966   -5.722330   -0.121130
     57          1           0        0.706339   -6.029285    0.705684
     58          6           0       -4.795725   -4.597584    0.615293
     59          1           0       -4.321409   -5.088692   -0.238642
     60          1           0       -4.297576   -4.935772    1.527647
     61          1           0       -5.835445   -4.928029    0.657348
     62          6           0       -5.500335   -2.475357    1.711707
     63          1           0       -4.989508   -2.751298    2.637909
     64          1           0       -5.561874   -1.389119    1.657606
     65          1           0       -6.516226   -2.877361    1.750010
     66          6           0       -5.503670   -2.678572   -0.811889
     67          1           0       -5.588092   -1.598038   -0.920038
     68          1           0       -4.977769   -3.075637   -1.683886
     69          1           0       -6.510547   -3.104133   -0.796025
 ---------------------------------------------------------------------
 Rotational constants (GHZ):           0.1844360           0.0721121           0.0542040
 Leave Link  202 at Fri Dec 21 13:49:59 2018, MaxMem=  1342177280 cpu:               1.0 elap:               0.2
 (Enter /gpfs/apps/hpc/Apps/Restricted/Gaussian/Rev_A.03/g16/l301.exe)
 Standard basis: 6-31G(d,p) (6D, 7F)
 Ernie: Thresh=  0.10000D-02 Tol=  0.10000D-05 Strict=F.
   665 basis functions,  1155 primitive gaussians,   665 cartesian basis functions
   117 alpha electrons      116 beta electrons
       nuclear repulsion energy      3170.8871225882 Hartrees.
 IExCor=  402 DFT=T Ex+Corr=B3LYP ExCW=0 ScaHFX=  0.200000
 ScaDFX=  0.800000  0.720000  1.000000  0.810000 ScalE2=  1.000000  1.000000
 IRadAn=      5 IRanWt=     -1 IRanGd=            0 ICorTp=0 IEmpDi=141
 NAtoms=   69 NActive=   69 NUniq=   69 SFac= 1.00D+00 NAtFMM=   60 NAOKFM=T Big=T
 Integral buffers will be    131072 words long.
 Raffenetti 2 integral format.
 Two-electron integral symmetry is turned off.
 R6Disp:  Grimme-D3(BJ) Dispersion energy=       -0.1495521329 Hartrees.
 Nuclear repulsion after empirical dispersion term =     3170.7375704553 Hartrees.
 Force inversion solution in PCM.
 Using the following non-standard input for PCM:
 radii=bondi
 dis
 rep
 cav
 --- end of non-standard input.
 Force inversion solution in PCM.
 ------------------------------------------------------------------------------
 Polarizable Continuum Model (PCM)
 =================================
 Model                : C-PCM.
 Atomic radii         : Bondi.
 Polarization charges : Total charges.
 Charge compensation  : None.
 Solution method      : Matrix inversion.
 Cavity type          : Scaled VdW (van der Waals Surface) (Alpha=1.100).
 Cavity algorithm     : GePol (No added spheres)
                        Default sphere list used, NSphG=   69.
                        Lebedev-Laikov grids with approx.  5.0 points / Ang**2.
                        Smoothing algorithm: York/Karplus (Gamma=1.0000).
                        Polarization charges: spherical gaussians, with
                                              point-specific exponents (IZeta= 3).
                        Self-potential: point-specific (ISelfS= 7).
                        Self-field    : sphere-specific E.n sum rule (ISelfD= 2).
 1st derivatives      : Analytical E(r).r(x)/FMM algorithm (CHGder, D1EAlg=3).
                        Cavity 1st derivative terms included.
 2nd derivatives      : Analytical E(r).r(xy)/FMM algorithm (CHGder, D2EAlg=3).
                        Cavity 2nd derivative terms included.
 Solvent              : Dichloromethane, Eps=   8.930000 Eps(inf)=   2.028346
 ------------------------------------------------------------------------------
 GePol: Number of generator spheres                  =      69
 GePol: Total number of spheres                      =      69
 GePol: Number of exposed spheres                    =      69 (100.00%)
 GePol: Number of points                             =    4361
 GePol: Average weight of points                     =       0.12
 GePol: Minimum weight of points                     =   0.35D-10
 GePol: Maximum weight of points                     =    0.21770
 GePol: Number of points with low weight             =     336
 GePol: Fraction of low-weight points (<1% of avg)   =       7.70%
 GePol: Cavity surface area                          =    518.994 Ang**2
 GePol: Cavity volume                                =    500.154 Ang**3
 PCM non-electrostatic energy =         0.0251692113 Hartrees.
 Nuclear repulsion after PCM non-electrostatic terms =     3170.7627396666 Hartrees.
 Leave Link  301 at Fri Dec 21 13:49:59 2018, MaxMem=  1342177280 cpu:               4.0 elap:               0.3
 (Enter /gpfs/apps/hpc/Apps/Restricted/Gaussian/Rev_A.03/g16/l302.exe)
 NPDir=0 NMtPBC=     1 NCelOv=     1 NCel=       1 NClECP=     1 NCelD=      1
         NCelK=      1 NCelE2=     1 NClLst=     1 CellRange=     0.0.
 One-electron integrals computed using PRISM.
 NBasis=   665 RedAO= T EigKep=  3.11D-04  NBF=   665
 NBsUse=   665 1.00D-06 EigRej= -1.00D+00 NBFU=   665
 Precomputing XC quadrature grid using
 IXCGrd= 4 IRadAn=           5 IRanWt=          -1 IRanGd=           0 AccXCQ= 0.00D+00.
 Generated NRdTot=       0 NPtTot=           0 NUsed=           0 NTot=          32
 NSgBfM=   647   646   647   647   647 MxSgAt=    69 MxSgA2=    69.
 Leave Link  302 at Fri Dec 21 13:50:00 2018, MaxMem=  1342177280 cpu:              17.1 elap:               1.1
 (Enter /gpfs/apps/hpc/Apps/Restricted/Gaussian/Rev_A.03/g16/l303.exe)
 DipDrv:  MaxL=1.
 Leave Link  303 at Fri Dec 21 13:50:00 2018, MaxMem=  1342177280 cpu:               1.5 elap:               0.1
 (Enter /gpfs/apps/hpc/Apps/Restricted/Gaussian/Rev_A.03/g16/l401.exe)
 ExpMin= 1.61D-01 ExpMax= 5.48D+03 ExpMxC= 8.25D+02 IAcc=3 IRadAn=         5 AccDes= 0.00D+00
 Harris functional with IExCor=  402 and IRadAn=       5 diagonalized for initial guess.
 HarFok:  IExCor=  402 AccDes= 0.00D+00 IRadAn=         5 IDoV= 1 UseB2=F ITyADJ=14
 ICtDFT=  3500011 ScaDFX=  1.000000  1.000000  1.000000  1.000000
 FoFCou: FMM=F IPFlag=           0 FMFlag=      100000 FMFlg1=        2001
         NFxFlg=           0 DoJE=T BraDBF=F KetDBF=T FulRan=T
         wScrn=  0.000000 ICntrl=       500 IOpCl=  0 I1Cent=   200000004 NGrid=           0
         NMat0=    1 NMatS0=      1 NMatT0=    0 NMatD0=    1 NMtDS0=    0 NMtDT0=    0
 Symmetry not used in FoFCou.
 Harris En= -1328.77240931709    
 JPrj=0 DoOrth=F DoCkMO=F.
 Initial guess <Sx>= 0.0000 <Sy>= 0.0000 <Sz>= 0.5000 <S**2>= 0.7500 S= 0.5000
 Leave Link  401 at Fri Dec 21 13:50:04 2018, MaxMem=  1342177280 cpu:              59.1 elap:               3.8
 (Enter /gpfs/apps/hpc/Apps/Restricted/Gaussian/Rev_A.03/g16/l502.exe)
 Two-electron integral symmetry not used.
 UHF open shell SCF:
 Using DIIS extrapolation, IDIIS=  1040.
 NGot=  1342177280 LenX=  1341276554 LenY=  1340833664
 Requested convergence on RMS density matrix=1.00D-08 within 128 cycles.
 Requested convergence on MAX density matrix=1.00D-06.
 Requested convergence on             energy=1.00D-06.
 No special actions if energy rises.
 Fock matrices will be formed incrementally for  20 cycles.

 Cycle   1  Pass 1  IDiag  1:
 FoFJK:  IHMeth= 1 ICntrl=       0 DoSepK=F KAlg= 0 I1Cent=           0 FoldK=F
 IRaf= 760000000 NMat=       1 IRICut=       1 DoRegI=T DoRafI=F ISym2E= 0 IDoP0=0 IntGTp=1.
 FoFCou: FMM=T IPFlag=           0 FMFlag=      100000 FMFlg1=        2001
         NFxFlg=           0 DoJE=F BraDBF=F KetDBF=F FulRan=T
         wScrn=  0.000000 ICntrl=         0 IOpCl=  1 I1Cent=           0 NGrid=           0
         NMat0=    1 NMatS0=      1 NMatT0=    0 NMatD0=    1 NMtDS0=    0 NMtDT0=    0
 Symmetry not used in FoFCou.
 FMM levels:  10  Number of levels for PrismC:   9
 Inv3:  Mode=1 IEnd=    57054963.
 Iteration    1 A*A^-1 deviation from unit magnitude is 1.09D-14 for    546.
 Iteration    1 A*A^-1 deviation from orthogonality  is 3.89D-15 for   3449   2181.
 Iteration    1 A^-1*A deviation from unit magnitude is 1.11D-14 for    546.
 Iteration    1 A^-1*A deviation from orthogonality  is 4.91D-15 for   4116    803.
 E= -1328.01054390547    
 DIIS: error= 2.90D-02 at cycle   1 NSaved=   1.
 NSaved= 1 IEnMin= 1 EnMin= -1328.01054390547     IErMin= 1 ErrMin= 2.90D-02
 ErrMax= 2.90D-02  0.00D+00 EMaxC= 1.00D-01 BMatC= 3.03D+00 BMatP= 3.03D+00
 IDIUse=3 WtCom= 7.10D-01 WtEn= 2.90D-01
 Coeff-Com:  0.100D+01
 Coeff-En:   0.100D+01
 Coeff:      0.100D+01
 Gap=     0.113 Goal=   None    Shift=    0.000
 Gap=     0.053 Goal=   None    Shift=    0.000
 GapD=    0.053 DampG=0.500 DampE=0.500 DampFc=0.2500 IDamp=-1.
 Damping current iteration by 2.50D-01
 RMSDP=3.05D-03 MaxDP=1.51D-01              OVMax= 3.33D-01

 Cycle   2  Pass 1  IDiag  1:
 RMSU=  7.40D-04    CP:  9.85D-01
 E= -1328.29887894505     Delta-E=       -0.288335039586 Rises=F Damp=T
 DIIS: error= 1.52D-02 at cycle   2 NSaved=   2.
 NSaved= 2 IEnMin= 2 EnMin= -1328.29887894505     IErMin= 2 ErrMin= 1.52D-02
 ErrMax= 1.52D-02  0.00D+00 EMaxC= 1.00D-01 BMatC= 8.06D-01 BMatP= 3.03D+00
 IDIUse=3 WtCom= 8.48D-01 WtEn= 1.52D-01
 Coeff-Com: -0.867D+00 0.187D+01
 Coeff-En:   0.000D+00 0.100D+01
 Coeff:     -0.735D+00 0.174D+01
 Gap=     0.152 Goal=   None    Shift=    0.000
 Gap=     0.056 Goal=   None    Shift=    0.000
 RMSDP=1.14D-03 MaxDP=8.10D-02 DE=-2.88D-01 OVMax= 2.24D-01

 Cycle   3  Pass 1  IDiag  1:
 RMSU=  7.73D-04    CP:  9.56D-01  2.03D+00
 E= -1328.78640696635     Delta-E=       -0.487528021297 Rises=F Damp=F
 DIIS: error= 3.79D-03 at cycle   3 NSaved=   3.
 NSaved= 3 IEnMin= 3 EnMin= -1328.78640696635     IErMin= 3 ErrMin= 3.79D-03
 ErrMax= 3.79D-03  0.00D+00 EMaxC= 1.00D-01 BMatC= 8.24D-02 BMatP= 8.06D-01
 IDIUse=3 WtCom= 9.62D-01 WtEn= 3.79D-02
 Coeff-Com: -0.305D+00 0.669D+00 0.636D+00
 Coeff-En:   0.000D+00 0.000D+00 0.100D+01
 Coeff:     -0.293D+00 0.644D+00 0.650D+00
 Gap=     0.126 Goal=   None    Shift=    0.000
 Gap=     0.054 Goal=   None    Shift=    0.000
 RMSDP=3.84D-04 MaxDP=3.47D-02 DE=-4.88D-01 OVMax= 9.04D-02

 Cycle   4  Pass 1  IDiag  1:
 RMSU=  3.11D-04    CP:  9.58D-01  2.03D+00  7.12D-01
 E= -1328.79901310599     Delta-E=       -0.012606139639 Rises=F Damp=F
 DIIS: error= 3.32D-03 at cycle   4 NSaved=   4.
 NSaved= 4 IEnMin= 4 EnMin= -1328.79901310599     IErMin= 4 ErrMin= 3.32D-03
 ErrMax= 3.32D-03  0.00D+00 EMaxC= 1.00D-01 BMatC= 3.72D-02 BMatP= 8.24D-02
 IDIUse=3 WtCom= 9.67D-01 WtEn= 3.32D-02
 Coeff-Com: -0.426D-01 0.108D+00 0.399D+00 0.535D+00
 Coeff-En:   0.000D+00 0.000D+00 0.312D+00 0.688D+00
 Coeff:     -0.412D-01 0.105D+00 0.396D+00 0.541D+00
 Gap=     0.127 Goal=   None    Shift=    0.000
 Gap=     0.056 Goal=   None    Shift=    0.000
 RMSDP=1.67D-04 MaxDP=1.45D-02 DE=-1.26D-02 OVMax= 2.80D-02

 Cycle   5  Pass 1  IDiag  1:
 RMSU=  8.96D-05    CP:  9.58D-01  2.01D+00  8.03D-01  6.10D-01
 E= -1328.80773730256     Delta-E=       -0.008724196568 Rises=F Damp=F
 DIIS: error= 6.69D-04 at cycle   5 NSaved=   5.
 NSaved= 5 IEnMin= 5 EnMin= -1328.80773730256     IErMin= 5 ErrMin= 6.69D-04
 ErrMax= 6.69D-04  0.00D+00 EMaxC= 1.00D-01 BMatC= 2.43D-03 BMatP= 3.72D-02
 IDIUse=3 WtCom= 9.93D-01 WtEn= 6.69D-03
 Coeff-Com:  0.374D-02 0.349D-03 0.157D+00 0.285D+00 0.553D+00
 Coeff-En:   0.000D+00 0.000D+00 0.000D+00 0.000D+00 0.100D+01
 Coeff:      0.371D-02 0.347D-03 0.156D+00 0.283D+00 0.556D+00
 Gap=     0.127 Goal=   None    Shift=    0.000
 Gap=     0.058 Goal=   None    Shift=    0.000
 RMSDP=4.83D-05 MaxDP=5.65D-03 DE=-8.72D-03 OVMax= 1.59D-02

 Cycle   6  Pass 1  IDiag  1:
 RMSU=  3.44D-05    CP:  9.58D-01  2.01D+00  8.10D-01  6.50D-01  6.54D-01
 E= -1328.80831574084     Delta-E=       -0.000578438287 Rises=F Damp=F
 DIIS: error= 2.57D-04 at cycle   6 NSaved=   6.
 NSaved= 6 IEnMin= 6 EnMin= -1328.80831574084     IErMin= 6 ErrMin= 2.57D-04
 ErrMax= 2.57D-04  0.00D+00 EMaxC= 1.00D-01 BMatC= 2.17D-04 BMatP= 2.43D-03
 IDIUse=3 WtCom= 9.97D-01 WtEn= 2.57D-03
 Coeff-Com:  0.531D-02-0.801D-02 0.522D-01 0.103D+00 0.293D+00 0.555D+00
 Coeff-En:   0.000D+00 0.000D+00 0.000D+00 0.000D+00 0.000D+00 0.100D+01
 Coeff:      0.530D-02-0.799D-02 0.521D-01 0.103D+00 0.292D+00 0.556D+00
 Gap=     0.127 Goal=   None    Shift=    0.000
 Gap=     0.058 Goal=   None    Shift=    0.000
 RMSDP=1.62D-05 MaxDP=1.62D-03 DE=-5.78D-04 OVMax= 5.81D-03

 Cycle   7  Pass 1  IDiag  1:
 RMSU=  1.43D-05    CP:  9.58D-01  2.01D+00  8.11D-01  6.56D-01  7.28D-01
                    CP:  9.75D-01
 E= -1328.80837927865     Delta-E=       -0.000063537807 Rises=F Damp=F
 DIIS: error= 1.85D-04 at cycle   7 NSaved=   7.
 NSaved= 7 IEnMin= 7 EnMin= -1328.80837927865     IErMin= 7 ErrMin= 1.85D-04
 ErrMax= 1.85D-04  0.00D+00 EMaxC= 1.00D-01 BMatC= 3.65D-05 BMatP= 2.17D-04
 IDIUse=3 WtCom= 9.98D-01 WtEn= 1.85D-03
 Coeff-Com:  0.216D-02-0.411D-02 0.406D-03 0.413D-03 0.577D-01 0.269D+00
 Coeff-Com:  0.674D+00
 Coeff-En:   0.000D+00 0.000D+00 0.000D+00 0.000D+00 0.000D+00 0.000D+00
 Coeff-En:   0.100D+01
 Coeff:      0.216D-02-0.411D-02 0.406D-03 0.412D-03 0.576D-01 0.269D+00
 Coeff:      0.675D+00
 Gap=     0.128 Goal=   None    Shift=    0.000
 Gap=     0.058 Goal=   None    Shift=    0.000
 RMSDP=1.20D-05 MaxDP=1.26D-03 DE=-6.35D-05 OVMax= 8.39D-03

 Cycle   8  Pass 1  IDiag  1:
 RMSU=  7.97D-06    CP:  9.58D-01  2.01D+00  8.12D-01  6.62D-01  7.69D-01
                    CP:  1.20D+00  1.09D+00
 E= -1328.80840425320     Delta-E=       -0.000024974551 Rises=F Damp=F
 DIIS: error= 8.09D-05 at cycle   8 NSaved=   8.
 NSaved= 8 IEnMin= 8 EnMin= -1328.80840425320     IErMin= 8 ErrMin= 8.09D-05
 ErrMax= 8.09D-05  0.00D+00 EMaxC= 1.00D-01 BMatC= 1.47D-05 BMatP= 3.65D-05
 IDIUse=1 WtCom= 1.00D+00 WtEn= 0.00D+00
 Coeff-Com: -0.590D-03 0.654D-03-0.176D-01-0.397D-01-0.747D-01-0.980D-01
 Coeff-Com:  0.359D+00 0.871D+00
 Coeff:     -0.590D-03 0.654D-03-0.176D-01-0.397D-01-0.747D-01-0.980D-01
 Coeff:      0.359D+00 0.871D+00
 Gap=     0.128 Goal=   None    Shift=    0.000
 Gap=     0.059 Goal=   None    Shift=    0.000
 RMSDP=1.19D-05 MaxDP=1.47D-03 DE=-2.50D-05 OVMax= 9.00D-03

 Cycle   9  Pass 1  IDiag  1:
 RMSU=  4.35D-06    CP:  9.58D-01  2.01D+00  8.12D-01  6.69D-01  8.09D-01
                    CP:  1.41D+00  1.56D+00  1.32D+00
 E= -1328.80841996649     Delta-E=       -0.000015713291 Rises=F Damp=F
 DIIS: error= 5.76D-05 at cycle   9 NSaved=   9.
 NSaved= 9 IEnMin= 9 EnMin= -1328.80841996649     IErMin= 9 ErrMin= 5.76D-05
 ErrMax= 5.76D-05  0.00D+00 EMaxC= 1.00D-01 BMatC= 5.94D-06 BMatP= 1.47D-05
 IDIUse=1 WtCom= 1.00D+00 WtEn= 0.00D+00
 Coeff-Com: -0.884D-03 0.149D-02-0.116D-01-0.279D-01-0.698D-01-0.174D+00
 Coeff-Com:  0.153D-01 0.564D+00 0.703D+00
 Coeff:     -0.884D-03 0.149D-02-0.116D-01-0.279D-01-0.698D-01-0.174D+00
 Coeff:      0.153D-01 0.564D+00 0.703D+00
 Gap=     0.128 Goal=   None    Shift=    0.000
 Gap=     0.059 Goal=   None    Shift=    0.000
 RMSDP=8.00D-06 MaxDP=8.13D-04 DE=-1.57D-05 OVMax= 5.97D-03

 Cycle  10  Pass 1  IDiag  1:
 RMSU=  2.35D-06    CP:  9.58D-01  2.02D+00  8.13D-01  6.72D-01  8.33D-01
                    CP:  1.56D+00  1.83D+00  1.78D+00  1.02D+00
 E= -1328.80842607704     Delta-E=       -0.000006110547 Rises=F Damp=F
 DIIS: error= 3.02D-05 at cycle  10 NSaved=  10.
 NSaved=10 IEnMin=10 EnMin= -1328.80842607704     IErMin=10 ErrMin= 3.02D-05
 ErrMax= 3.02D-05  0.00D+00 EMaxC= 1.00D-01 BMatC= 1.30D-06 BMatP= 5.94D-06
 IDIUse=1 WtCom= 1.00D+00 WtEn= 0.00D+00
 Coeff-Com: -0.775D-04 0.278D-03-0.104D-03-0.198D-02-0.931D-02-0.567D-01
 Coeff-Com: -0.766D-01 0.515D-02 0.331D+00 0.809D+00
 Coeff:     -0.775D-04 0.278D-03-0.104D-03-0.198D-02-0.931D-02-0.567D-01
 Coeff:     -0.766D-01 0.515D-02 0.331D+00 0.809D+00
 Gap=     0.128 Goal=   None    Shift=    0.000
 Gap=     0.059 Goal=   None    Shift=    0.000
 RMSDP=4.08D-06 MaxDP=4.43D-04 DE=-6.11D-06 OVMax= 3.14D-03

 Cycle  11  Pass 1  IDiag  1:
 RMSU=  1.29D-06    CP:  9.58D-01  2.02D+00  8.13D-01  6.73D-01  8.44D-01
                    CP:  1.62D+00  1.96D+00  1.98D+00  1.37D+00  1.21D+00
 E= -1328.80842770939     Delta-E=       -0.000001632346 Rises=F Damp=F
 DIIS: error= 1.47D-05 at cycle  11 NSaved=  11.
 NSaved=11 IEnMin=11 EnMin= -1328.80842770939     IErMin=11 ErrMin= 1.47D-05
 ErrMax= 1.47D-05  0.00D+00 EMaxC= 1.00D-01 BMatC= 4.79D-07 BMatP= 1.30D-06
 IDIUse=1 WtCom= 1.00D+00 WtEn= 0.00D+00
 Coeff-Com:  0.262D-03-0.339D-03 0.422D-02 0.874D-02 0.203D-01 0.286D-01
 Coeff-Com: -0.424D-01-0.210D+00-0.640D-01 0.458D+00 0.797D+00
 Coeff:      0.262D-03-0.339D-03 0.422D-02 0.874D-02 0.203D-01 0.286D-01
 Coeff:     -0.424D-01-0.210D+00-0.640D-01 0.458D+00 0.797D+00
 Gap=     0.128 Goal=   None    Shift=    0.000
 Gap=     0.059 Goal=   None    Shift=    0.000
 RMSDP=2.58D-06 MaxDP=3.41D-04 DE=-1.63D-06 OVMax= 1.88D-03

 Cycle  12  Pass 1  IDiag  1:
 RMSU=  6.12D-07    CP:  9.58D-01  2.02D+00  8.13D-01  6.74D-01  8.49D-01
                    CP:  1.66D+00  2.04D+00  2.13D+00  1.56D+00  1.65D+00
                    CP:  1.16D+00
 E= -1328.80842830428     Delta-E=       -0.000000594890 Rises=F Damp=F
 DIIS: error= 7.02D-06 at cycle  12 NSaved=  12.
 NSaved=12 IEnMin=12 EnMin= -1328.80842830428     IErMin=12 ErrMin= 7.02D-06
 ErrMax= 7.02D-06  0.00D+00 EMaxC= 1.00D-01 BMatC= 7.71D-08 BMatP= 4.79D-07
 IDIUse=1 WtCom= 1.00D+00 WtEn= 0.00D+00
 Coeff-Com:  0.987D-04-0.195D-03 0.112D-02 0.276D-02 0.875D-02 0.252D-01
 Coeff-Com:  0.155D-01-0.564D-01-0.119D+00-0.143D+00 0.225D+00 0.104D+01
 Coeff:      0.987D-04-0.195D-03 0.112D-02 0.276D-02 0.875D-02 0.252D-01
 Coeff:      0.155D-01-0.564D-01-0.119D+00-0.143D+00 0.225D+00 0.104D+01
 Gap=     0.128 Goal=   None    Shift=    0.000
 Gap=     0.059 Goal=   None    Shift=    0.000
 RMSDP=1.39D-06 MaxDP=2.20D-04 DE=-5.95D-07 OVMax= 9.63D-04

 Cycle  13  Pass 1  IDiag  1:
 RMSU=  3.10D-07    CP:  9.58D-01  2.02D+00  8.13D-01  6.75D-01  8.52D-01
                    CP:  1.68D+00  2.08D+00  2.19D+00  1.68D+00  1.90D+00
                    CP:  1.55D+00  1.27D+00
 E= -1328.80842844265     Delta-E=       -0.000000138379 Rises=F Damp=F
 DIIS: error= 3.88D-06 at cycle  13 NSaved=  13.
 NSaved=13 IEnMin=13 EnMin= -1328.80842844265     IErMin=13 ErrMin= 3.88D-06
 ErrMax= 3.88D-06  0.00D+00 EMaxC= 1.00D-01 BMatC= 2.91D-08 BMatP= 7.71D-08
 IDIUse=1 WtCom= 1.00D+00 WtEn= 0.00D+00
 Coeff-Com:  0.691D-05-0.453D-04-0.529D-04 0.114D-03 0.164D-02 0.936D-02
 Coeff-Com:  0.139D-01 0.258D-02-0.570D-01-0.157D+00-0.116D-01 0.562D+00
 Coeff-Com:  0.637D+00
 Coeff:      0.691D-05-0.453D-04-0.529D-04 0.114D-03 0.164D-02 0.936D-02
 Coeff:      0.139D-01 0.258D-02-0.570D-01-0.157D+00-0.116D-01 0.562D+00
 Coeff:      0.637D+00
 Gap=     0.128 Goal=   None    Shift=    0.000
 Gap=     0.059 Goal=   None    Shift=    0.000
 RMSDP=4.53D-07 MaxDP=6.35D-05 DE=-1.38D-07 OVMax= 2.80D-04

 Cycle  14  Pass 1  IDiag  1:
 RMSU=  1.54D-07    CP:  9.58D-01  2.02D+00  8.13D-01  6.75D-01  8.53D-01
                    CP:  1.68D+00  2.09D+00  2.21D+00  1.72D+00  1.97D+00
                    CP:  1.65D+00  1.50D+00  9.37D-01
 E= -1328.80842846150     Delta-E=       -0.000000018848 Rises=F Damp=F
 DIIS: error= 1.39D-06 at cycle  14 NSaved=  14.
 NSaved=14 IEnMin=14 EnMin= -1328.80842846150     IErMin=14 ErrMin= 1.39D-06
 ErrMax= 1.39D-06  0.00D+00 EMaxC= 1.00D-01 BMatC= 5.00D-09 BMatP= 2.91D-08
 IDIUse=1 WtCom= 1.00D+00 WtEn= 0.00D+00
 Coeff-Com: -0.323D-04 0.452D-04-0.379D-03-0.839D-03-0.185D-02-0.251D-02
 Coeff-Com:  0.288D-02 0.208D-01 0.564D-02-0.402D-01-0.656D-01 0.136D-02
 Coeff-Com:  0.305D+00 0.776D+00
 Coeff:     -0.323D-04 0.452D-04-0.379D-03-0.839D-03-0.185D-02-0.251D-02
 Coeff:      0.288D-02 0.208D-01 0.564D-02-0.402D-01-0.656D-01 0.136D-02
 Coeff:      0.305D+00 0.776D+00
 Gap=     0.128 Goal=   None    Shift=    0.000
 Gap=     0.059 Goal=   None    Shift=    0.000
 RMSDP=1.49D-07 MaxDP=2.65D-05 DE=-1.88D-08 OVMax= 7.69D-05

 Cycle  15  Pass 1  IDiag  1:
 RMSU=  6.99D-08    CP:  9.58D-01  2.02D+00  8.13D-01  6.75D-01  8.53D-01
                    CP:  1.68D+00  2.09D+00  2.22D+00  1.72D+00  1.99D+00
                    CP:  1.69D+00  1.59D+00  1.19D+00  1.01D+00
 E= -1328.80842846482     Delta-E=       -0.000000003313 Rises=F Damp=F
 DIIS: error= 8.89D-07 at cycle  15 NSaved=  15.
 NSaved=15 IEnMin=15 EnMin= -1328.80842846482     IErMin=15 ErrMin= 8.89D-07
 ErrMax= 8.89D-07  0.00D+00 EMaxC= 1.00D-01 BMatC= 1.31D-09 BMatP= 5.00D-09
 IDIUse=1 WtCom= 1.00D+00 WtEn= 0.00D+00
 Coeff-Com: -0.123D-04 0.221D-04-0.158D-03-0.387D-03-0.109D-02-0.247D-02
 Coeff-Com: -0.162D-02 0.860D-02 0.109D-01 0.606D-02-0.271D-01-0.843D-01
 Coeff-Com:  0.231D-01 0.374D+00 0.695D+00
 Coeff:     -0.123D-04 0.221D-04-0.158D-03-0.387D-03-0.109D-02-0.247D-02
 Coeff:     -0.162D-02 0.860D-02 0.109D-01 0.606D-02-0.271D-01-0.843D-01
 Coeff:      0.231D-01 0.374D+00 0.695D+00
 Gap=     0.128 Goal=   None    Shift=    0.000
 Gap=     0.059 Goal=   None    Shift=    0.000
 RMSDP=8.04D-08 MaxDP=8.98D-06 DE=-3.31D-09 OVMax= 3.94D-05

 Cycle  16  Pass 1  IDiag  1:
 RMSU=  3.98D-08    CP:  9.58D-01  2.02D+00  8.13D-01  6.75D-01  8.53D-01
                    CP:  1.68D+00  2.09D+00  2.22D+00  1.73D+00  2.00D+00
                    CP:  1.70D+00  1.62D+00  1.27D+00  1.21D+00  9.81D-01
 E= -1328.80842846570     Delta-E=       -0.000000000885 Rises=F Damp=F
 DIIS: error= 4.97D-07 at cycle  16 NSaved=  16.
 NSaved=16 IEnMin=16 EnMin= -1328.80842846570     IErMin=16 ErrMin= 4.97D-07
 ErrMax= 4.97D-07  0.00D+00 EMaxC= 1.00D-01 BMatC= 4.64D-10 BMatP= 1.31D-09
 IDIUse=1 WtCom= 1.00D+00 WtEn= 0.00D+00
 Coeff-Com:  0.674D-05-0.610D-05 0.571D-04 0.929D-04 0.592D-04-0.412D-03
 Coeff-Com: -0.211D-02-0.253D-02 0.468D-02 0.204D-01 0.102D-01-0.529D-01
 Coeff-Com: -0.124D+00-0.681D-01 0.459D+00 0.755D+00
 Coeff:      0.674D-05-0.610D-05 0.571D-04 0.929D-04 0.592D-04-0.412D-03
 Coeff:     -0.211D-02-0.253D-02 0.468D-02 0.204D-01 0.102D-01-0.529D-01
 Coeff:     -0.124D+00-0.681D-01 0.459D+00 0.755D+00
 Gap=     0.128 Goal=   None    Shift=    0.000
 Gap=     0.059 Goal=   None    Shift=    0.000
 RMSDP=4.32D-08 MaxDP=4.85D-06 DE=-8.85D-10 OVMax= 1.85D-05

 Cycle  17  Pass 1  IDiag  1:
 RMSU=  1.51D-08    CP:  9.58D-01  2.02D+00  8.13D-01  6.75D-01  8.53D-01
                    CP:  1.68D+00  2.09D+00  2.22D+00  1.73D+00  2.00D+00
                    CP:  1.71D+00  1.64D+00  1.33D+00  1.34D+00  1.32D+00
                    CP:  9.25D-01
 E= -1328.80842846593     Delta-E=       -0.000000000228 Rises=F Damp=F
 DIIS: error= 1.58D-07 at cycle  17 NSaved=  17.
 NSaved=17 IEnMin=17 EnMin= -1328.80842846593     IErMin=17 ErrMin= 1.58D-07
 ErrMax= 1.58D-07  0.00D+00 EMaxC= 1.00D-01 BMatC= 4.33D-11 BMatP= 4.64D-10
 IDIUse=1 WtCom= 1.00D+00 WtEn= 0.00D+00
 Coeff-Com:  0.466D-05-0.570D-05 0.428D-04 0.851D-04 0.151D-03 0.158D-03
 Coeff-Com: -0.745D-03-0.205D-02 0.424D-03 0.726D-02 0.646D-02-0.103D-01
 Coeff-Com: -0.557D-01-0.685D-01 0.105D+00 0.283D+00 0.735D+00
 Coeff:      0.466D-05-0.570D-05 0.428D-04 0.851D-04 0.151D-03 0.158D-03
 Coeff:     -0.745D-03-0.205D-02 0.424D-03 0.726D-02 0.646D-02-0.103D-01
 Coeff:     -0.557D-01-0.685D-01 0.105D+00 0.283D+00 0.735D+00
 Gap=     0.128 Goal=   None    Shift=    0.000
 Gap=     0.059 Goal=   None    Shift=    0.000
 RMSDP=1.75D-08 MaxDP=1.79D-06 DE=-2.28D-10 OVMax= 9.09D-06

 Cycle  18  Pass 1  IDiag  1:
 RMSU=  7.51D-09    CP:  9.58D-01  2.02D+00  8.13D-01  6.75D-01  8.53D-01
                    CP:  1.68D+00  2.09D+00  2.22D+00  1.73D+00  2.00D+00
                    CP:  1.71D+00  1.65D+00  1.35D+00  1.37D+00  1.39D+00
                    CP:  1.07D+00  1.07D+00
 E= -1328.80842846594     Delta-E=       -0.000000000009 Rises=F Damp=F
 DIIS: error= 9.38D-08 at cycle  18 NSaved=  18.
 NSaved=18 IEnMin=18 EnMin= -1328.80842846594     IErMin=18 ErrMin= 9.38D-08
 ErrMax= 9.38D-08  0.00D+00 EMaxC= 1.00D-01 BMatC= 1.86D-11 BMatP= 4.33D-11
 IDIUse=1 WtCom= 1.00D+00 WtEn= 0.00D+00
 Coeff-Com:  0.999D-06-0.185D-05 0.891D-05 0.219D-04 0.693D-04 0.216D-03
 Coeff-Com:  0.181D-03-0.389D-03-0.112D-02-0.149D-02 0.657D-03 0.101D-01
 Coeff-Com:  0.212D-02-0.183D-01-0.699D-01-0.579D-01 0.451D+00 0.685D+00
 Coeff:      0.999D-06-0.185D-05 0.891D-05 0.219D-04 0.693D-04 0.216D-03
 Coeff:      0.181D-03-0.389D-03-0.112D-02-0.149D-02 0.657D-03 0.101D-01
 Coeff:      0.212D-02-0.183D-01-0.699D-01-0.579D-01 0.451D+00 0.685D+00
 Gap=     0.128 Goal=   None    Shift=    0.000
 Gap=     0.059 Goal=   None    Shift=    0.000
 RMSDP=7.48D-09 MaxDP=1.15D-06 DE=-9.09D-12 OVMax= 3.14D-06

 Cycle  19  Pass 1  IDiag  1:
 RMSU=  3.82D-09    CP:  9.58D-01  2.02D+00  8.13D-01  6.75D-01  8.53D-01
                    CP:  1.68D+00  2.09D+00  2.22D+00  1.73D+00  2.00D+00
[...]
 -0.00013109,-0.00002775,-0.00054175,0.00002477,0.00001723,0.00023739,-
 0.00014375,-0.00020552,0.00040956,-0.00067403,0.00004989,0.00017587,0.
 00002776,-0.00012557,0.00026522,0.00034839,0.00000666,-0.00000759,0.00
 006565,0.02144987,-0.32179388,0.02566399,-0.02019555,0.34894932,-0.000
 03284,0.00009686,0.00000161,0.00011860,0.00002625,0.00001643,0.0000115
 4,-0.00007369,0.00000210,0.00010807,0.00004371,0.00000433,-0.00009551,
 0.00007281,-0.00001004,0.00002706,-0.00006364,0.00000504,-0.00007964,0
 .00009856,-0.00000146,-0.00000617,0.00000151,0.00000201,0.00000050,0.0
 0000473,0.00000022,0.00000198,0.00000286,-0.00000031,0.00017002,0.0001
 5523,-0.00005035,-0.00169257,0.00125296,-0.00017433,0.00012448,-0.0002
 1478,-0.00000323,0.00001149,0.00003910,-0.00001200,0.00008748,0.000017
 65,-0.00001212,-0.00030495,0.00009472,0.00006853,0.00107206,-0.0004722
 8,0.00065937,0.00001382,-0.00001548,0.00001055,0.00011113,-0.00001396,
 -0.00002752,-0.00000152,-0.00000134,-0.00002052,-0.00050749,0.02776245
 ,-0.00284950,0.00005375,-0.00173913,-0.00053771,0.00000891,-0.00006454
 ,-0.00000228,-0.00005624,0.00003449,-0.00000449,0.00000355,0.00000028,
 0.00000006,0.00002916,-0.00003475,0.00000487,-0.00001384,0.00000675,-0
 .00000486,0.00000372,-0.00000155,0.00000731,0.00000327,-0.00000422,-0.
 00000305,0.00000274,-0.00000110,0.00000076,-0.00000061,0.00000167,-0.0
 0000368,-0.00000016,0.00000010,-0.00000028,-0.00000053,-0.00000017,-0.
 00000028,-0.00000089,0.00000233,0.00000178,-0.00000065,-0.00000025,0.0
 0000014,-0.00000027,0.00000032,0.00000021,-0.00000018,-0.00000091,0.00
 000035,0.00000198,-0.00000027,-0.00000025,0.00000021,-0.00000043,0.000
 00037,0.00000156,-0.00000004,0.00000028,0.00000033,-0.00000047,-0.0000
 0010,0.00000084,0.00000015,-0.00000006,-0.00000014,0.00000014,-0.00000
 004,-0.00001306,0.00000222,0.00000032,-0.00003625,-0.00064275,0.000158
 89,-0.00000269,0.00000137,-0.00000022,0.00000028,-0.00000076,-0.000000
 46,-0.00000198,-0.00000165,-0.00000001,0.00000034,0.00000057,0.0000010
 5,0.00000433,-0.00000751,0.00000281,-0.00000132,-0.00000081,0.00000215
 ,0.00000194,-0.00000064,-0.00000290,0.00000020,-0.00000059,0.00000028,
 0.00000400,0.00000158,-0.00000292,0.00000183,-0.00000138,0.00000640,0.
 00000057,-0.00000161,-0.00000341,-0.00000281,-0.00000195,0.00000113,-0
 .00316758,0.00057834,-0.00491580,-0.00017460,0.00005171,0.00022081,-0.
 00032387,0.00201522,-0.00018570,0.00003897,-0.00035339,-0.00003187,0.0
 0007676,0.00077632,0.00173290,-0.00009759,-0.00013706,0.00026045,0.000
 25624,-0.00042894,-0.00036105,0.00006249,-0.00003379,-0.00007187,0.000
 03118,0.02190150,-0.05148139,0.00372004,-0.02619711,0.05526504,-0.0000
 5804,0.00009284,-0.00000833,0.00006630,0.00009518,-0.00000184,0.000007
 85,-0.00007883,0.00000472,0.00010475,0.00004098,0.00000460,-0.00009125
 ,0.00006789,-0.00000888,0.00001042,-0.00005864,0.00000346,0.00002381,0
 .00013373,-0.00000702,-0.00000406,0.00000049,-0.00000012,0.00000002,0.
 00000315,0.00000005,0.00000144,0.00000206,-0.00000009,0.00001361,-0.00
 010767,0.00000610,-0.00004710,0.00008418,0.00009977,0.00013513,-0.0001
 8037,0.00001046,-0.00003802,0.00027350,-0.00003394,-0.00014864,-0.0002
 0155,-0.00002442,0.00052511,-0.00002597,-0.00006583,0.00163476,-0.0005
 1993,-0.00030895,-0.00000104,0.00000452,0.00000490,0.00000831,0.000014
 68,0.00000783,-0.00001330,0.00001035,0.00001760,0.00670666,-0.00646984
 ,-0.01359594,0.00001677,-0.00007411,0.00012603,-0.00004619,-0.00009125
 ,0.00000344,-0.00004463,0.00002128,-0.00000442,0.00000210,0.00000040,0
 .00000011,0.00002220,-0.00002632,0.00000406,-0.00001062,0.00000467,-0.
 00000388,0.00000276,-0.00000136,0.00000556,0.00000235,-0.00000324,-0.0
 0000238,0.00000200,-0.00000076,0.00000052,-0.00000067,0.00000126,-0.00
 000271,-0.00000013,0.00000015,-0.00000027,-0.00000045,-0.00000013,-0.0
 0000020,-0.00000076,0.00000178,0.00000135,-0.00000046,-0.00000011,0.00
 000013,-0.00000018,0.00000021,0.00000013,-0.00000014,-0.00000076,0.000
 00026,0.00000160,-0.00000018,-0.00000032,0.00000012,-0.00000032,0.0000
 0030,0.00000124,0.,0.00000025,0.00000022,-0.00000035,-0.00000010,0.000
 00076,0.00000011,0.,-0.00000013,0.00000018,-0.00000004,-0.00000863,0.0
 0000117,-0.00000015,0.00002632,0.00003947,0.00000102,0.00000209,0.0000
 0262,-0.00000251,0.00000118,-0.00000093,0.00000053,-0.00000008,-0.0000
 0037,0.00000100,0.00000006,-0.00000017,0.00000022,-0.00000678,0.000010
 39,-0.00000517,-0.00000017,-0.00000097,-0.00000202,0.00000016,-0.00000
 151,0.00000246,0.00008712,-0.00001048,-0.00000438,0.00000408,-0.000003
 48,-0.00000065,-0.00000008,0.00000147,-0.00000298,-0.00000210,0.000002
 94,-0.00000239,0.00000312,-0.00000157,-0.00000029,0.00030050,-0.000597
 79,0.00014593,-0.00011473,0.00027068,0.00038930,-0.00002027,-0.0002220
 4,0.00004442,0.00002185,0.00010488,0.00001221,-0.00122706,0.00094227,-
 0.00262019,0.00075091,-0.00017801,-0.00087915,-0.00016515,0.00006570,0
 .00009468,0.00025026,0.00010951,-0.00016390,-0.11267161,0.04868822,0.1
 0446121,-0.00138569,-0.00001714,0.00059878,0.11819251,0.00003726,-0.00
 007728,0.00000783,-0.00007344,-0.00005589,0.00000508,-0.00000570,0.000
 05524,-0.00000445,-0.00007418,-0.00002908,-0.00000305,0.00006326,-0.00
 004755,0.00000598,-0.00000904,0.00004139,-0.00000401,0.00000987,-0.000
 10760,0.00000419,0.00000347,-0.00000070,-0.00000033,-0.00000010,-0.000
 00247,-0.00000026,-0.00000102,-0.00000154,-0.00000004,-0.00006344,0.00
 000439,-0.00000141,0.00017663,-0.00049701,0.00009530,-0.00006985,0.000
 11163,0.00000412,0.00002697,-0.00012682,-0.00000025,0.00005778,0.00009
 545,0.00004544,-0.00021973,0.00003774,-0.00011103,-0.00010309,0.000313
 78,-0.00030905,-0.00000289,0.00000046,0.00000357,0.00002214,0.00000503
 ,-0.00001961,0.00000497,-0.00000056,-0.00001584,-0.00451963,0.00131869
 ,0.00626365,-0.00067760,-0.00027771,-0.00021930,0.00002137,0.00006697,
 -0.00000156,0.00003078,-0.00001756,0.00000308,-0.00000195,-0.00000017,
 -0.00000030,-0.00001546,0.00001924,-0.00000219,0.00000653,-0.00000336,
 0.00000234,-0.00000216,0.00000050,-0.00000435,-0.00000170,0.00000206,0
 .00000141,-0.00000157,0.00000062,-0.00000056,0.00000008,-0.00000077,0.
 00000204,0.00000008,-0.00000010,0.00000012,0.00000035,0.00000037,0.000
 00049,0.00000030,-0.00000102,-0.00000093,0.00000037,0.00000014,-0.0000
 0006,0.00000010,-0.00000014,0.,0.00000014,0.00000029,-0.00000032,-0.00
 000105,0.00000012,0.00000013,-0.00000011,0.00000022,-0.00000022,-0.000
 00064,0.00000014,0.00000002,-0.00000018,0.00000014,0.,-0.00000019,-0.0
 0000005,0.00000012,0.00000003,-0.00000003,0.00000005,0.00000557,-0.000
 00246,-0.00000101,-0.00002998,0.00015022,-0.00003676,-0.00000061,-0.00
 000078,0.00000274,0.00000013,-0.00000066,-0.00000046,-0.00000087,-0.00
 000095,-0.00000077,-0.00000005,0.00000037,0.00000089,0.00000358,-0.000
 00668,0.00000043,-0.00000203,-0.00000065,0.00000037,0.00000160,0.00000
 018,-0.00000038,-0.00002730,0.00000597,0.00000525,-0.00000018,0.000002
 14,0.00000195,-0.00000060,-0.00000049,0.00000286,0.00000320,-0.0000003
 2,0.00000101,-0.00000116,-0.00000026,0.00000021,-0.00054397,0.00067966
 ,0.00086921,0.00038411,-0.00028189,-0.00019529,-0.00009217,0.00011516,
 -0.00015906,-0.00002208,-0.00001995,0.00004710,0.00055565,-0.00002419,
 0.00136482,-0.00002037,0.00050376,0.00035668,-0.00006626,0.00019395,0.
 00016587,0.00019788,-0.00008846,-0.00010996,0.04899882,-0.08461503,-0.
 07941282,0.01621078,-0.00903882,-0.02568982,-0.05417316,0.08660741,0.0
 0002371,-0.00005765,0.00000005,-0.00004473,-0.00004469,-0.00001068,-0.
 00000487,0.00004512,0.00000008,-0.00006039,-0.00002471,-0.00000177,0.0
 0005375,-0.00004086,0.00000575,-0.00001029,0.00003522,-0.00000036,-0.0
 0002861,-0.00006303,-0.00001111,0.00000279,-0.00000041,-0.00000118,-0.
 00000009,-0.00000188,-0.00000024,-0.00000074,-0.00000145,-0.00000034,-
 0.00003389,0.00001490,0.00002690,0.00012363,-0.00023857,-0.00021537,-0
 .00004152,-0.00001755,0.00001683,0.00004748,-0.00013812,0.00000553,0.0
 0008009,0.00018614,-0.00013850,-0.00058643,0.00009152,0.00022012,0.001
 98470,0.00023466,0.00076197,-0.00000466,-0.00000216,0.00000659,0.00000
 070,0.00000434,0.00005220,0.00000166,-0.00001617,0.00002845,0.01284045
 ,-0.01016473,-0.02126067,-0.00025967,-0.00004386,-0.00000561,0.0000155
 0,0.00003931,0.00000323,0.00003020,-0.00001627,0.00000190,-0.00000149,
 -0.00000026,-0.00000022,-0.00001476,0.00001889,-0.00000168,0.00000676,
 -0.00000367,0.00000218,-0.00000204,0.00000044,-0.00000426,-0.00000168,
 0.00000205,0.00000120,-0.00000144,0.00000060,-0.00000065,0.00000023,-0
 .00000101,0.00000204,0.00000005,0.00000005,0.00000017,0.00000045,0.000
 00029,0.00000064,0.00000043,-0.00000114,-0.00000087,0.00000037,0.00000
 022,-0.00000007,0.00000006,-0.00000016,0.00000015,0.00000012,0.0000003
 0,-0.00000041,-0.00000108,0.00000009,0.00000023,-0.00000015,0.00000037
 ,-0.00000032,-0.00000064,0.00000017,0.00000004,-0.00000019,0.00000021,
 -0.00000006,-0.00000035,-0.00000006,0.00000014,0.00000006,0.00000005,0
 .00000008,0.00000599,-0.00000223,-0.00000131,0.00000652,0.00009675,-0.
 00002507,-0.00000007,0.00000100,-0.00000023,-0.00000197,0.00000123,-0.
 00000098,0.00000077,0.00000031,-0.00000016,0.00000017,-0.00000043,0.00
 000124,-0.00000851,0.00000609,-0.00001610,-0.00000033,-0.00000042,0.00
 000156,-0.00000189,-0.00000171,0.00000659,-0.00002307,0.00000224,0.000
 01394,-0.00000561,-0.00000338,-0.00000218,0.00000206,-0.00000189,0.000
 00311,0.00000272,0.00000063,0.00000262,-0.00000060,0.00000226,0.000000
 42,0.00066435,-0.00136215,0.00070208,-0.00002148,0.00054956,0.00011027
 ,-0.00025807,0.00001941,0.00027930,-0.00003822,0.00007960,-0.00002036,
 -0.00429459,0.00232792,-0.00411721,0.00087318,-0.00072786,-0.00166104,
 -0.00005544,-0.00003068,0.00022720,-0.00002807,0.00018127,0.00036527,0
 .10284395,-0.07810522,-0.21357825,-0.00227917,0.00114415,0.00335024,-0
 .11115205,0.08551856,0.23469893,0.00026883,-0.00044531,0.00003683,-0.0
 0032114,-0.00044863,0.00000408,-0.00004194,0.00036680,-0.00002261,-0.0
 0048792,-0.00019152,-0.00002226,0.00042633,-0.00031495,0.00004153,-0.0
 0003954,0.00027129,-0.00001623,-0.00018525,-0.00056675,0.00003133,0.00
 001970,-0.00000444,0.00000171,-0.00000045,-0.00001506,0.00000041,-0.00
 000635,-0.00000972,0.00000110,-0.00005505,0.00046868,-0.00002166,-0.00
 028259,-0.00000048,0.00005603,-0.00048180,0.00055565,0.00008742,0.0002
 0262,-0.00105730,0.00005553,0.00036187,0.00079980,0.00028429,-0.000374
 92,-0.00053013,-0.00011731,0.00001627,0.00222643,-0.00340014,-0.000000
 56,-0.00001808,-0.00002525,0.00000518,0.00000440,-0.00012667,0.0000566
 5,-0.00006664,-0.00006250,-0.01593415,-0.00575658,-0.00001633,0.000143
 67,0.00020193,0.00001429,0.00021942,0.00041044,-0.00001320,0.00019986,
 -0.00009517,0.00002050,-0.00000994,-0.00000152,-0.00000035,-0.00010022
 ,0.00011767,-0.00001947,0.00004636,-0.00002107,0.00001793,-0.00001241,
 0.00000616,-0.00002443,-0.00001050,0.00001463,0.00001109,-0.00000915,0
 .00000344,-0.00000235,0.00000255,-0.00000556,0.00001233,0.00000065,-0.
 00000052,0.00000109,0.00000170,0.00000013,0.00000032,0.00000306,-0.000
 00780,-0.00000606,0.00000209,0.00000039,-0.00000043,0.00000094,-0.0000
 0092,-0.00000118,0.00000071,0.00000344,-0.00000083,-0.00000666,0.00000
 091,0.00000074,-0.00000062,0.00000124,-0.00000118,-0.00000561,-0.00000
 015,-0.00000135,-0.00000092,0.00000149,0.00000052,-0.00000313,-0.00000
 050,-0.00000004,0.00000053,-0.00000076,0.00000015,0.00003979,-0.000006
 12,0.00000206,-0.00011955,-0.00010285,0.00002551,-0.00001150,-0.000015
 32,0.00001289,-0.00000533,0.00000351,-0.00000250,0.00000033,0.00000170
 ,-0.00000483,-0.00000041,0.00000083,-0.00000183,0.00000838,-0.00003874
 ,0.00001625,-0.00000112,0.00000390,0.00000348,-0.00000248,0.00000827,-
 0.00000663,0.00000066,-0.00000009,-0.00000011,-0.00002034,0.00001326,0
 .00000303,-0.00000031,-0.00000510,0.00001273,0.00000123,-0.00001175,-0
 .00001006,-0.00001327,0.00000720,0.00000033,-0.00011044,-0.00083915,0.
 00083570,-0.00003262,0.00006638,-0.00003805,0.00043200,0.00003436,0.00
 004102,0.00034181,0.00075221,-0.00016923,0.00055780,-0.00006916,0.0010
 3809,0.00024943,0.00019622,-0.00001695,0.00002878,0.00000664,-0.000027
 21,0.00013687,-0.00011776,-0.00063033,-0.27286839,-0.09666006,0.007079
 43,0.00350465,0.00136204,-0.00015024,-0.01282231,-0.00599829,-0.000344
 10,0.29709813,-0.00006576,0.00006258,-0.00000567,0.00001327,0.00012058
 ,-0.00000116,0.00000172,-0.00004694,0.00000299,0.00005350,0.00001983,0
 .00000273,-0.00004523,0.00002946,-0.00000427,-0.00001153,-0.00002653,0
 .00000277,0.00008110,0.00015541,-0.00002121,-0.00000104,0.00000073,0.,
 -0.00000039,-0.00000002,0.00000010,0.00000019,0.00000010,-0.00000091,-
 0.00011083,-0.00028503,0.00002154,0.00118124,-0.00047688,0.00022218,0.
 00006265,-0.00018259,0.00013617,-0.00006540,0.00037305,-0.00001744,-0.
 00030847,-0.00030862,-0.00027096,0.00059319,-0.00006068,-0.00015197,0.
 00058261,-0.00002495,0.00135244,-0.00001373,0.00001389,0.00000180,0.00
 004757,0.00006519,0.00015832,-0.00001737,-0.00000055,0.00008690,0.0079
 9319,0.00175885,0.00100497,-0.00133424,-0.00072026,-0.00085499,-0.0000
 8474,-0.00010451,-0.00001055,-0.00000935,-0.00000091,-0.00000073,-0.00
 000014,0.00000019,0.00000024,0.00000295,-0.00000533,0.00000045,-0.0000
 0053,0.00000066,-0.00000051,0.00000043,-0.00000003,0.00000101,0.000000
 24,-0.00000039,-0.00000029,0.00000041,-0.00000026,0.00000020,0.0000000
 8,0.00000025,-0.00000047,0.,-0.00000008,-0.00000001,-0.00000009,-0.000
 00009,-0.00000027,0.00000004,0.00000033,0.00000016,-0.00000004,-0.0000
 0013,0.00000005,-0.00000003,0.00000009,0.00000005,-0.00000001,0.000000
 08,0.00000006,0.00000016,-0.00000003,0.00000002,0.00000006,-0.00000015
 ,0.00000005,0.00000003,-0.00000010,-0.00000011,0.00000007,-0.00000011,
 0.00000007,-0.00000008,0.00000003,-0.00000004,0.00000002,-0.00000013,0
 .00000002,0.00000220,0.00000207,0.00000033,0.00007287,0.00047986,-0.00
 012188,0.00000416,0.00000439,-0.00000132,-0.00000173,0.00000219,-0.000
 00098,0.00000239,0.00000064,0.00000189,0.00000065,-0.00000077,-0.00000
 133,-0.00002176,0.00003453,-0.00002235,0.00000279,-0.00000292,-0.00000
 248,-0.00000657,-0.00000134,0.00001267,0.00000125,-0.00000018,0.000000
 18,-0.00000106,-0.00000500,-0.00000021,0.00000258,0.00000186,-0.000003
 61,-0.00000056,0.00000273,0.00000048,0.00000101,0.00000152,-0.00000174
 ,0.00141889,0.00023011,0.00048273,-0.00004653,-0.00004734,-0.00009608,
 -0.00000199,0.00018329,-0.00023815,-0.00011950,-0.00005976,0.00018627,
 -0.00026640,-0.00006112,-0.00036030,0.00013282,-0.00008013,-0.00011076
 ,-0.00007423,-0.00000391,0.00001064,-0.00002221,0.00001384,-0.00014760
 ,-0.09756779,-0.08898330,0.00165412,-0.02952590,-0.00964861,0.00115830
 ,0.01195636,0.00499555,0.00050844,0.10551251,0.09258578,0.00027067,-0.
 00044742,0.00002973,-0.00031798,-0.00045851,-0.00000468,-0.00004105,0.
 00035977,-0.00001946,-0.00047385,-0.00018754,-0.00002161,0.00041499,-0
 .00030523,0.00004096,-0.00003356,0.00026529,-0.00001627,-0.00018406,-0
 .00059362,0.00003863,0.00001921,-0.00000538,0.00000103,-0.00000049,-0.
 00001410,0.00000029,-0.00000586,-0.00000911,0.00000167,-0.00004094,0.0
 0048587,0.00000407,-0.00036337,-0.00042701,0.00012133,-0.00049374,0.00
 063110,0.00002219,0.00020934,-0.00119412,0.00004992,0.00049121,0.00102
 301,0.00050114,-0.00133730,-0.00043621,0.00031763,-0.00087317,0.003003
 83,-0.00430267,0.00000121,-0.00002492,-0.00003820,-0.00002212,-0.00006
 434,-0.00026090,0.00004689,-0.00007742,-0.00012765,-0.02681883,-0.0105
 0712,-0.00198664,0.00006379,0.00009836,0.00000793,0.00023036,0.0004273
 6,-0.00000094,0.00018892,-0.00008967,0.00001820,-0.00000949,-0.0000014
 2,-0.00000037,-0.00009352,0.00011247,-0.00001765,0.00004184,-0.0000200
 9,0.00001643,-0.00001177,0.00000531,-0.00002317,-0.00000991,0.00001352
 ,0.00001028,-0.00000880,0.00000349,-0.00000240,0.00000193,-0.00000514,
 0.00001163,0.00000061,-0.00000038,0.00000097,0.00000164,0.00000036,0.0
 0000085,0.00000249,-0.00000729,-0.00000568,0.00000194,0.00000054,-0.00
 000038,0.00000089,-0.00000090,-0.00000120,0.00000064,0.00000286,-0.000
 00084,-0.00000608,0.00000087,0.00000055,-0.00000064,0.00000125,-0.0000
 0108,-0.00000497,0.00000006,-0.00000098,-0.00000092,0.00000141,0.00000
 035,-0.00000243,-0.00000049,0.00000005,0.00000041,-0.00000048,0.000000
 11,0.00003533,-0.00000831,0.00000117,-0.00013997,-0.00013121,-0.000031
 99,-0.00001808,-0.00000606,0.00002025,-0.00000668,-0.00000011,-0.00000
 531,-0.00000181,-0.00000053,-0.00000593,-0.00000046,0.00000166,-0.0000
 0115,0.00001800,-0.00005272,0.00001930,-0.00000405,0.00000395,0.000004
 68,0.00000145,0.00000851,-0.00000915,0.00000066,0.00000253,0.00000359,
 -0.00002199,0.00001303,0.00000194,-0.00000152,-0.00000455,0.00001412,0
 .00000331,-0.00001094,-0.00000936,-0.00001252,0.00000712,0.00000180,-0
 .00053287,-0.00094037,0.00077315,0.00006232,0.00011940,-0.00003976,0.0
 0023584,-0.00034456,0.00006700,0.00045745,0.00034857,-0.00004236,-0.00
 068273,-0.00048393,0.00136725,0.00015388,0.00018762,0.00035061,0.00006
 301,-0.00005876,-0.00007608,0.00033179,0.00007694,-0.00025958,0.008463
 21,0.00219167,-0.04641590,0.00235595,0.00056076,-0.00101271,0.02285215
 ,0.01152249,0.00017801,-0.00444579,-0.00456101,0.05074323\\-0.00000052
 ,0.00000069,0.00000887,-0.00000044,0.00000080,0.00001185,-0.00000071,0
 .00000068,0.00001636,-0.00000067,0.00000094,0.00001788,-0.00000060,0.0
 0000071,0.00001502,-0.00000036,0.00000041,0.00001052,-0.00000052,0.000
 00037,0.00000520,-0.00000084,0.00000106,0.00001857,-0.00000091,0.00000
 112,0.00002133,-0.00000061,0.00000069,0.00001635,-0.00000032,0.0000003
 5,0.00000942,-0.00000011,0.00000025,0.00000267,0.00000003,-0.00000007,
 0.00000171,-0.00000012,0.00000026,-0.00000265,0.00000002,-0.00000040,-
 0.00000599,0.00000033,-0.00000032,-0.00000495,0.00000019,-0.00000035,-
 0.00000076,-0.00000002,0.00000014,-0.00000328,0.00000042,-0.00000054,-
 0.00000759,0.00000021,-0.00000021,-0.00001072,0.00000028,-0.00000041,0
 .00000021,-0.00000010,0.00000008,0.00000673,-0.00000009,0.00000011,0.0
 0000477,-0.00000025,0.00000024,0.00000769,-0.00000019,0.00000013,0.000
 00910,0.00000001,-0.00000008,0.00000350,0.00000019,-0.00000026,0.00000
 044,-0.00000218,0.00000356,-0.00000011,0.00000196,-0.00000326,0.000001
 74,0.00000066,-0.00000105,-0.00000268,-0.00000200,0.00000336,-0.000003
 42,-0.00000270,0.00000440,0.00000307,-0.00000340,0.00000561,-0.0000011
 0,0.00000209,-0.00000344,-0.00000161,0.00000153,-0.00000261,0.00000493
 ,0.00000359,-0.00000595,0.00000202,-0.00000017,0.00000036,-0.00000219,
 -0.00000365,0.00000608,-0.00000364,-0.00000161,0.00000276,-0.00000664,
 0.00000338,-0.00000555,-0.00000059,0.00000270,-0.00000435,-0.00000474,
 -0.00000005,0.00000017,-0.00000468,-0.00000069,0.00000111,0.00000085,-
 0.00000005,0.,0.00000227,-0.00000030,0.00000053,0.00000874,0.00000217,
 -0.00000335,-0.00001129,0.00000218,-0.00000332,-0.00001465,0.00000195,
 -0.00000303,-0.00000912,0.00000381,-0.00000608,-0.00001068,-0.00000203
 ,0.00000358,-0.00001167,-0.00000234,0.00000403,-0.00000948,-0.00000203
 ,0.00000363,-0.00001500,-0.00000342,0.00000584,-0.00001124,0.00000065,
 -0.00000082,-0.00001398,0.00000226,-0.00000346,-0.00001344,-0.00000070
 ,0.00000142,-0.00001383,0.00000071,-0.00000083,-0.00001727,0.00000051,
 -0.00000078,-0.00000399,-0.00000092,0.00000164,-0.00000616,0.00000205,
 -0.00000327,-0.00000578,0.00000058,-0.00000090,-0.00000316,0.00000228,
 -0.00000381,0.00000312,0.00000386,-0.00000639,0.00000146,0.00000216,-0
 .00000368,0.00000622,0.00000237,-0.00000397,0.00000369,-0.00000197,0.0
 0000320,0.00000251,-0.00000218,0.00000349,0.00000568,-0.00000343,0.000
 00563,0.00000055,-0.00000192,0.00000311,0.00000306\\\@


 "MATHEMATICS IS THE ART OF GIVING THE SAME NAME
 TO DIFFERENT THINGS."
                    - H. POINCARE
 Job cpu time:       0 days 14 hours 11 minutes 49.0 seconds.
 Elapsed time:       0 days  0 hours 53 minutes 28.0 seconds.
 File lengths (MBytes):  RWF=   5888 Int=      0 D2E=      0 Chk=     84 Scr=      8
 Normal termination of Gaussian 16 at Fri Dec 21 15:39:23 2018.
