 Entering Gaussian System, Link 0=g16
 Initial command:
 /gpfs/apps/hpc/Apps/Restricted/Gaussian/Rev_A.03/g16/l1.exe "/gpfs/scratch60/fas/hammes_schiffer/jg2487/c25n08/Gau-23552.inp" -scrdir="/gpfs/scratch60/fas/hammes_schiffer/jg2487/c25n08/"
 Entering Link 1 = /gpfs/apps/hpc/Apps/Restricted/Gaussian/Rev_A.03/g16/l1.exe PID=     23553.
  
 Copyright (c) 1988,1990,1992,1993,1995,1998,2003,2009,2016,
            Gaussian, Inc.  All Rights Reserved.
  
 This is part of the Gaussian(R) 16 program.  It is based on
 the Gaussian(R) 09 system (copyright 2009, Gaussian, Inc.),
 the Gaussian(R) 03 system (copyright 2003, Gaussian, Inc.),
 the Gaussian(R) 98 system (copyright 1998, Gaussian, Inc.),
 the Gaussian(R) 94 system (copyright 1995, Gaussian, Inc.),
 the Gaussian 92(TM) system (copyright 1992, Gaussian, Inc.),
 the Gaussian 90(TM) system (copyright 1990, Gaussian, Inc.),
 the Gaussian 88(TM) system (copyright 1988, Gaussian, Inc.),
 the Gaussian 86(TM) system (copyright 1986, Carnegie Mellon
 University), and the Gaussian 82(TM) system (copyright 1983,
 Carnegie Mellon University). Gaussian is a federally registered
 trademark of Gaussian, Inc.
  
 This software contains proprietary and confidential information,
 including trade secrets, belonging to Gaussian, Inc.
  
 This software is provided under written license and may be
 used, copied, transmitted, or stored only in accord with that
 written license.
  
 The following legend is applicable only to US Government
 contracts under FAR:
  
                    RESTRICTED RIGHTS LEGEND
  
 Use, reproduction and disclosure by the US Government is
 subject to restrictions as set forth in subparagraphs (a)
 and (c) of the Commercial Computer Software - Restricted
 Rights clause in FAR 52.227-19.
  
 Gaussian, Inc.
 340 Quinnipiac St., Bldg. 40, Wallingford CT 06492
  
  
 ---------------------------------------------------------------
 Warning -- This program may not be used in any manner that
 competes with the business of Gaussian, Inc. or will provide
 assistance to any competitor of Gaussian, Inc.  The licensee
 of this program is prohibited from giving any competitor of
 Gaussian, Inc. access to this program.  By using this program,
 the user acknowledges that Gaussian, Inc. is engaged in the
 business of creating and licensing software in the field of
 computational chemistry and represents and warrants to the
 licensee that it is not a competitor of Gaussian, Inc. and that
 it will not use this program in any manner prohibited above.
 ---------------------------------------------------------------
  

 Cite this work as:
 Gaussian 16, Revision A.03,
 M. J. Frisch, G. W. Trucks, H. B. Schlegel, G. E. Scuseria, 
 M. A. Robb, J. R. Cheeseman, G. Scalmani, V. Barone, 
 G. A. Petersson, H. Nakatsuji, X. Li, M. Caricato, A. V. Marenich, 
 J. Bloino, B. G. Janesko, R. Gomperts, B. Mennucci, H. P. Hratchian, 
 J. V. Ortiz, A. F. Izmaylov, J. L. Sonnenberg, D. Williams-Young, 
 F. Ding, F. Lipparini, F. Egidi, J. Goings, B. Peng, A. Petrone, 
 T. Henderson, D. Ranasinghe, V. G. Zakrzewski, J. Gao, N. Rega, 
 G. Zheng, W. Liang, M. Hada, M. Ehara, K. Toyota, R. Fukuda, 
 J. Hasegawa, M. Ishida, T. Nakajima, Y. Honda, O. Kitao, H. Nakai, 
 T. Vreven, K. Throssell, J. A. Montgomery, Jr., J. E. Peralta, 
 F. Ogliaro, M. J. Bearpark, J. J. Heyd, E. N. Brothers, K. N. Kudin, 
 V. N. Staroverov, T. A. Keith, R. Kobayashi, J. Normand, 
 K. Raghavachari, A. P. Rendell, J. C. Burant, S. S. Iyengar, 
 J. Tomasi, M. Cossi, J. M. Millam, M. Klene, C. Adamo, R. Cammi, 
 J. W. Ochterski, R. L. Martin, K. Morokuma, O. Farkas, 
 J. B. Foresman, and D. J. Fox, Gaussian, Inc., Wallingford CT, 2016.
 
 ******************************************
 Gaussian 16:  ES64L-G16RevA.03 25-Dec-2016
                20-Dec-2018 
 ******************************************
 %chk=cyclohexyl-monoBIP-E1PT_rev.chk
 %mem=10GB
 %nprocshared=16
 Will use up to   16 processors via shared memory.
 ----------------------------------------------------------------------
 #p opt=(calcfc,tight) freq=internalmodes b3lyp/6-31g(d,p) scrf=(cpcm,s
 olvent=dichloromethane,read) nosymm empiricaldispersion=gd3bj int=grid
 =ultrafine
 ----------------------------------------------------------------------
 1/7=10,10=4,18=20,19=15,26=6,38=1,40=2/1,3;
 2/9=110,12=2,15=1,17=6,18=5,40=1/2;
 3/5=1,6=6,7=101,11=2,25=1,30=1,70=2103,71=2,72=9,74=-5,75=-5,124=41,140=1/1,2,3;
 4//1;
 5/5=2,38=5,53=9/2;
 8/6=4,10=90,11=11/1;
 11/6=1,8=1,9=11,15=111,16=1,31=1/1,2,10;
 10/6=1,13=1,31=1/2;
 6/7=2,8=2,9=2,10=2,28=1/1;
 7/10=1,18=20,25=1,30=1/1,2,3,16;
 1/7=10,10=4,18=20,19=15,26=6/3(2);
 2/9=110,15=1/2;
 99//99;
 2/9=110,15=1/2;
 3/5=1,6=6,7=101,11=2,25=1,30=1,70=2105,71=1,72=9,74=-5,75=-5,124=41/1,2,3;
 4/5=5,16=3,69=1/1;
 5/5=2,38=5,53=9/2;
 7/30=1/1,2,3,16;
 1/7=10,18=20,19=15,26=6/3(-5);
 2/9=110,15=1/2;
 6/7=2,8=2,9=2,10=2,19=2,28=1/1;
 99/9=1/99;
 Leave Link    1 at Thu Dec 20 18:56:29 2018, MaxMem=  1342177280 cpu:               6.7 elap:               0.5
 (Enter /gpfs/apps/hpc/Apps/Restricted/Gaussian/Rev_A.03/g16/l101.exe)
 ----------------------------------------------------------------------
 cyclohexylimine monoBIP oxidized, with proton on imine and phenol opti
 mization
 ----------------------------------------------------------------------
 Symbolic Z-matrix:
 Charge =  1 Multiplicity = 2
 C                    -0.45425   2.58471   0.25188 
 C                    -1.89      2.74008   0.22485 
 C                    -2.47502   4.0157    0.15519 
 C                    -1.63094   5.11909   0.12405 
 C                    -0.22707   4.98329   0.15744 
 C                     0.39108   3.7293    0.21888 
 C                    -1.35662   0.66422   0.32509 
 H                    -3.55148   4.13248   0.12883 
 H                    -2.05588   6.11376   0.07445 
 H                     0.39127   5.87303   0.13681 
 N                    -2.43373   1.49999   0.27286 
 C                    -2.95434  -1.17152   0.39478 
 C                    -1.57995  -0.74008   0.38344 
 C                    -0.56081  -1.69615   0.4244 
 C                    -0.86534  -3.05062   0.4844 
 C                    -2.23814  -3.45322   0.50838 
 C                    -3.28215  -2.55765   0.46591 
 H                     0.46809  -1.35913   0.40921 
 H                    -2.45786  -4.51397   0.56205 
 C                     0.21675  -4.08737   0.53122 
 C                    -4.72333  -2.97045   0.47703 
 O                    -3.91995  -0.28621   0.33566 
 N                    -0.13137   1.278     0.31385 
 C                     1.81432   3.61993   0.26005 
 H                     2.41636   4.52196   0.24844 
 N                     2.43083   2.47768   0.31957 
 C                     3.89535   2.30996   0.38747 
 C                     4.56191   2.72082  -0.93277 
 C                     4.48961   3.07741   1.57515 
 H                     4.047     1.23981   0.54186 
 C                     6.07616   2.49439  -0.85069 
 H                     4.35375   3.78115  -1.1169 
 H                     4.12728   2.15178  -1.75842 
 C                     6.00364   2.84931   1.6509 
 H                     4.2933    4.14769   1.44222 
 H                     3.9956    2.76526   2.49884 
 C                     6.6926    3.23923   0.33802 
 H                     6.54579   2.80643  -1.78751 
 H                     6.26817   1.4199   -0.74269 
 H                     6.41504   3.42238   2.48647 
 H                     6.19769   1.79125   1.86396 
 H                     7.7651    3.03282   0.39899 
 H                     6.58291   4.31977   0.18287 
 H                     1.8329    1.64152   0.32799 
 H                    -3.47966   0.64996   0.29863 
 C                     0.99333  -3.99528   1.85788 
 H                     1.41293  -4.95117   2.09263 
 H                     1.77862  -3.27482   1.76221 
 H                     0.32802  -3.69587   2.64057 
 C                     1.23854  -3.86944  -0.60018 
 H                     1.90737  -3.07933  -0.32943 
 H                     1.79498  -4.76989  -0.75657 
 H                     0.72322  -3.60767  -1.50063 
 C                    -0.36315  -5.50904   0.41222 
 H                    -1.00144  -5.70502   1.24833 
 H                    -0.92704  -5.58957  -0.49356 
 H                     0.4361   -6.22032   0.39922 
 C                    -4.84549  -4.50076   0.59882 
 H                    -4.37745  -4.96416  -0.24444 
 H                    -4.36452  -4.82657   1.49739 
 H                    -5.87939  -4.77482   0.62815 
 C                    -5.47581  -2.31798   1.65162 
 H                    -4.78589  -2.09912   2.43965 
 H                    -5.9376   -1.41155   1.31989 
 H                    -6.22677  -2.98992   2.01141 
 C                    -5.43139  -2.51878  -0.8138 
 H                    -5.84847  -1.54404  -0.66946 
 H                    -4.7246   -2.48899  -1.61659 
 H                    -6.21305  -3.20947  -1.05224 
 
 ITRead=  0  0  0  0  0  0  0  0  0  0  0  0  0  0  0  0  0  0  0  0
 ITRead=  0  0  0  0  0  0  0  0  0  0  0  0  0  0  0  0  0  0  0  0
 ITRead=  0  0  0  0  0  0  0  0  0  0  0  0  0  0  0  0  0  0  0  0
 ITRead=  0  0  0  0  0  0  0  0  0
 MicOpt= -1 -1 -1 -1 -1 -1 -1 -1 -1 -1 -1 -1 -1 -1 -1 -1 -1 -1 -1 -1
 MicOpt= -1 -1 -1 -1 -1 -1 -1 -1 -1 -1 -1 -1 -1 -1 -1 -1 -1 -1 -1 -1
 MicOpt= -1 -1 -1 -1 -1 -1 -1 -1 -1 -1 -1 -1 -1 -1 -1 -1 -1 -1 -1 -1
 MicOpt= -1 -1 -1 -1 -1 -1 -1 -1 -1
 NAtoms=     69 NQM=       69 NQMF=       0 NMMI=      0 NMMIF=      0
                NMic=       0 NMicF=      0.
                    Isotopes and Nuclear Properties:
 (Nuclear quadrupole moments (NQMom) in fm**2, nuclear magnetic moments (NMagM)
  in nuclear magnetons)

  Atom         1           2           3           4           5           6           7           8           9          10
 IAtWgt=          12          12          12          12          12          12          12           1           1           1
 AtmWgt=  12.0000000  12.0000000  12.0000000  12.0000000  12.0000000  12.0000000  12.0000000   1.0078250   1.0078250   1.0078250
 NucSpn=           0           0           0           0           0           0           0           1           1           1
 AtZEff=  -0.0000000  -0.0000000  -0.0000000  -0.0000000  -0.0000000  -0.0000000  -0.0000000  -0.0000000  -0.0000000  -0.0000000
 NQMom=    0.0000000   0.0000000   0.0000000   0.0000000   0.0000000   0.0000000   0.0000000   0.0000000   0.0000000   0.0000000
 NMagM=    0.0000000   0.0000000   0.0000000   0.0000000   0.0000000   0.0000000   0.0000000   2.7928460   2.7928460   2.7928460
 AtZNuc=   6.0000000   6.0000000   6.0000000   6.0000000   6.0000000   6.0000000   6.0000000   1.0000000   1.0000000   1.0000000

  Atom        11          12          13          14          15          16          17          18          19          20
 IAtWgt=          14          12          12          12          12          12          12           1           1          12
 AtmWgt=  14.0030740  12.0000000  12.0000000  12.0000000  12.0000000  12.0000000  12.0000000   1.0078250   1.0078250  12.0000000
 NucSpn=           2           0           0           0           0           0           0           1           1           0
 AtZEff=  -0.0000000  -0.0000000  -0.0000000  -0.0000000  -0.0000000  -0.0000000  -0.0000000  -0.0000000  -0.0000000  -0.0000000
 NQMom=    2.0440000   0.0000000   0.0000000   0.0000000   0.0000000   0.0000000   0.0000000   0.0000000   0.0000000   0.0000000
 NMagM=    0.4037610   0.0000000   0.0000000   0.0000000   0.0000000   0.0000000   0.0000000   2.7928460   2.7928460   0.0000000
 AtZNuc=   7.0000000   6.0000000   6.0000000   6.0000000   6.0000000   6.0000000   6.0000000   1.0000000   1.0000000   6.0000000

  Atom        21          22          23          24          25          26          27          28          29          30
 IAtWgt=          12          16          14          12           1          14          12          12          12           1
 AtmWgt=  12.0000000  15.9949146  14.0030740  12.0000000   1.0078250  14.0030740  12.0000000  12.0000000  12.0000000   1.0078250
 NucSpn=           0           0           2           0           1           2           0           0           0           1
 AtZEff=  -0.0000000  -0.0000000  -0.0000000  -0.0000000  -0.0000000  -0.0000000  -0.0000000  -0.0000000  -0.0000000  -0.0000000
 NQMom=    0.0000000   0.0000000   2.0440000   0.0000000   0.0000000   2.0440000   0.0000000   0.0000000   0.0000000   0.0000000
 NMagM=    0.0000000   0.0000000   0.4037610   0.0000000   2.7928460   0.4037610   0.0000000   0.0000000   0.0000000   2.7928460
 AtZNuc=   6.0000000   8.0000000   7.0000000   6.0000000   1.0000000   7.0000000   6.0000000   6.0000000   6.0000000   1.0000000

  Atom        31          32          33          34          35          36          37          38          39          40
 IAtWgt=          12           1           1          12           1           1          12           1           1           1
 AtmWgt=  12.0000000   1.0078250   1.0078250  12.0000000   1.0078250   1.0078250  12.0000000   1.0078250   1.0078250   1.0078250
 NucSpn=           0           1           1           0           1           1           0           1           1           1
 AtZEff=  -0.0000000  -0.0000000  -0.0000000  -0.0000000  -0.0000000  -0.0000000  -0.0000000  -0.0000000  -0.0000000  -0.0000000
 NQMom=    0.0000000   0.0000000   0.0000000   0.0000000   0.0000000   0.0000000   0.0000000   0.0000000   0.0000000   0.0000000
 NMagM=    0.0000000   2.7928460   2.7928460   0.0000000   2.7928460   2.7928460   0.0000000   2.7928460   2.7928460   2.7928460
 AtZNuc=   6.0000000   1.0000000   1.0000000   6.0000000   1.0000000   1.0000000   6.0000000   1.0000000   1.0000000   1.0000000

  Atom        41          42          43          44          45          46          47          48          49          50
 IAtWgt=           1           1           1           1           1          12           1           1           1          12
 AtmWgt=   1.0078250   1.0078250   1.0078250   1.0078250   1.0078250  12.0000000   1.0078250   1.0078250   1.0078250  12.0000000
 NucSpn=           1           1           1           1           1           0           1           1           1           0
 AtZEff=  -0.0000000  -0.0000000  -0.0000000  -0.0000000  -0.0000000  -0.0000000  -0.0000000  -0.0000000  -0.0000000  -0.0000000
 NQMom=    0.0000000   0.0000000   0.0000000   0.0000000   0.0000000   0.0000000   0.0000000   0.0000000   0.0000000   0.0000000
 NMagM=    2.7928460   2.7928460   2.7928460   2.7928460   2.7928460   0.0000000   2.7928460   2.7928460   2.7928460   0.0000000
 AtZNuc=   1.0000000   1.0000000   1.0000000   1.0000000   1.0000000   6.0000000   1.0000000   1.0000000   1.0000000   6.0000000

  Atom        51          52          53          54          55          56          57          58          59          60
 IAtWgt=           1           1           1          12           1           1           1          12           1           1
 AtmWgt=   1.0078250   1.0078250   1.0078250  12.0000000   1.0078250   1.0078250   1.0078250  12.0000000   1.0078250   1.0078250
 NucSpn=           1           1           1           0           1           1           1           0           1           1
 AtZEff=  -0.0000000  -0.0000000  -0.0000000  -0.0000000  -0.0000000  -0.0000000  -0.0000000  -0.0000000  -0.0000000  -0.0000000
 NQMom=    0.0000000   0.0000000   0.0000000   0.0000000   0.0000000   0.0000000   0.0000000   0.0000000   0.0000000   0.0000000
 NMagM=    2.7928460   2.7928460   2.7928460   0.0000000   2.7928460   2.7928460   2.7928460   0.0000000   2.7928460   2.7928460
 AtZNuc=   1.0000000   1.0000000   1.0000000   6.0000000   1.0000000   1.0000000   1.0000000   6.0000000   1.0000000   1.0000000

  Atom        61          62          63          64          65          66          67          68          69
 IAtWgt=           1          12           1           1           1          12           1           1           1
 AtmWgt=   1.0078250  12.0000000   1.0078250   1.0078250   1.0078250  12.0000000   1.0078250   1.0078250   1.0078250
 NucSpn=           1           0           1           1           1           0           1           1           1
 AtZEff=  -0.0000000  -0.0000000  -0.0000000  -0.0000000  -0.0000000  -0.0000000  -0.0000000  -0.0000000  -0.0000000
 NQMom=    0.0000000   0.0000000   0.0000000   0.0000000   0.0000000   0.0000000   0.0000000   0.0000000   0.0000000
 NMagM=    2.7928460   0.0000000   2.7928460   2.7928460   2.7928460   0.0000000   2.7928460   2.7928460   2.7928460
 AtZNuc=   1.0000000   6.0000000   1.0000000   1.0000000   1.0000000   6.0000000   1.0000000   1.0000000   1.0000000
 Leave Link  101 at Thu Dec 20 18:56:30 2018, MaxMem=  1342177280 cpu:               4.0 elap:               0.3
 (Enter /gpfs/apps/hpc/Apps/Restricted/Gaussian/Rev_A.03/g16/l103.exe)

 GradGradGradGradGradGradGradGradGradGradGradGradGradGradGradGradGradGrad
 Berny optimization.
 Initialization pass.
                           ----------------------------
                           !    Initial Parameters    !
                           ! (Angstroms and Degrees)  !
 --------------------------                            --------------------------
 ! Name  Definition              Value          Derivative Info.                !
 --------------------------------------------------------------------------------
 ! R1    R(1,2)                  1.4444         calculate D2E/DX2 analytically  !
 ! R2    R(1,6)                  1.4233         calculate D2E/DX2 analytically  !
 ! R3    R(1,23)                 1.3474         calculate D2E/DX2 analytically  !
 ! R4    R(2,3)                  1.4051         calculate D2E/DX2 analytically  !
 ! R5    R(2,11)                 1.3549         calculate D2E/DX2 analytically  !
 ! R6    R(3,4)                  1.3896         calculate D2E/DX2 analytically  !
 ! R7    R(3,8)                  1.0831         calculate D2E/DX2 analytically  !
 ! R8    R(4,5)                  1.4108         calculate D2E/DX2 analytically  !
 ! R9    R(4,9)                  1.0828         calculate D2E/DX2 analytically  !
 ! R10   R(5,6)                  1.3994         calculate D2E/DX2 analytically  !
 ! R11   R(5,10)                 1.0837         calculate D2E/DX2 analytically  !
 ! R12   R(6,24)                 1.428          calculate D2E/DX2 analytically  !
 ! R13   R(7,11)                 1.3643         calculate D2E/DX2 analytically  !
 ! R14   R(7,13)                 1.4231         calculate D2E/DX2 analytically  !
 ! R15   R(7,23)                 1.3704         calculate D2E/DX2 analytically  !
 ! R16   R(12,13)                1.4406         calculate D2E/DX2 analytically  !
 ! R17   R(12,17)                1.4261         calculate D2E/DX2 analytically  !
 ! R18   R(12,22)                1.3114         calculate D2E/DX2 analytically  !
 ! R19   R(13,14)                1.398          calculate D2E/DX2 analytically  !
 ! R20   R(14,15)                1.3896         calculate D2E/DX2 analytically  !
 ! R21   R(14,18)                1.0828         calculate D2E/DX2 analytically  !
 ! R22   R(15,16)                1.4308         calculate D2E/DX2 analytically  !
 ! R23   R(15,20)                1.4993         calculate D2E/DX2 analytically  !
 ! R24   R(16,17)                1.3762         calculate D2E/DX2 analytically  !
 ! R25   R(16,19)                1.0846         calculate D2E/DX2 analytically  !
 ! R26   R(17,21)                1.4992         calculate D2E/DX2 analytically  !
 ! R27   R(20,46)                1.54           calculate D2E/DX2 analytically  !
 ! R28   R(20,50)                1.54           calculate D2E/DX2 analytically  !
 ! R29   R(20,54)                1.54           calculate D2E/DX2 analytically  !
 ! R30   R(21,58)                1.54           calculate D2E/DX2 analytically  !
 ! R31   R(21,62)                1.54           calculate D2E/DX2 analytically  !
 ! R32   R(21,66)                1.54           calculate D2E/DX2 analytically  !
 ! R33   R(22,45)                1.0352         calculate D2E/DX2 analytically  !
 ! R34   R(24,25)                1.0845         calculate D2E/DX2 analytically  !
 ! R35   R(24,26)                1.2994         calculate D2E/DX2 analytically  !
 ! R36   R(26,27)                1.4757         calculate D2E/DX2 analytically  !
 ! R37   R(26,44)                1.028          calculate D2E/DX2 analytically  !
 ! R38   R(27,28)                1.535          calculate D2E/DX2 analytically  !
 ! R39   R(27,29)                1.5338         calculate D2E/DX2 analytically  !
 ! R40   R(27,30)                1.0918         calculate D2E/DX2 analytically  !
 ! R41   R(28,31)                1.5333         calculate D2E/DX2 analytically  !
 ! R42   R(28,32)                1.0961         calculate D2E/DX2 analytically  !
 ! R43   R(28,33)                1.0929         calculate D2E/DX2 analytically  !
 ! R44   R(29,34)                1.533          calculate D2E/DX2 analytically  !
 ! R45   R(29,35)                1.0962         calculate D2E/DX2 analytically  !
 ! R46   R(29,36)                1.093          calculate D2E/DX2 analytically  !
 ! R47   R(31,37)                1.5323         calculate D2E/DX2 analytically  !
 ! R48   R(31,38)                1.0934         calculate D2E/DX2 analytically  !
 ! R49   R(31,39)                1.0968         calculate D2E/DX2 analytically  !
 ! R50   R(34,37)                1.5331         calculate D2E/DX2 analytically  !
 ! R51   R(34,40)                1.0935         calculate D2E/DX2 analytically  !
 ! R52   R(34,41)                1.0966         calculate D2E/DX2 analytically  !
 ! R53   R(37,42)                1.0939         calculate D2E/DX2 analytically  !
 ! R54   R(37,43)                1.0971         calculate D2E/DX2 analytically  !
 ! R55   R(46,47)                1.07           calculate D2E/DX2 analytically  !
 ! R56   R(46,48)                1.07           calculate D2E/DX2 analytically  !
 ! R57   R(46,49)                1.07           calculate D2E/DX2 analytically  !
 ! R58   R(50,51)                1.07           calculate D2E/DX2 analytically  !
 ! R59   R(50,52)                1.07           calculate D2E/DX2 analytically  !
 ! R60   R(50,53)                1.07           calculate D2E/DX2 analytically  !
 ! R61   R(54,55)                1.07           calculate D2E/DX2 analytically  !
 ! R62   R(54,56)                1.07           calculate D2E/DX2 analytically  !
 ! R63   R(54,57)                1.07           calculate D2E/DX2 analytically  !
 ! R64   R(58,59)                1.07           calculate D2E/DX2 analytically  !
 ! R65   R(58,60)                1.07           calculate D2E/DX2 analytically  !
 ! R66   R(58,61)                1.07           calculate D2E/DX2 analytically  !
 ! R67   R(62,63)                1.07           calculate D2E/DX2 analytically  !
 ! R68   R(62,64)                1.07           calculate D2E/DX2 analytically  !
 ! R69   R(62,65)                1.07           calculate D2E/DX2 analytically  !
 ! R70   R(66,67)                1.07           calculate D2E/DX2 analytically  !
 ! R71   R(66,68)                1.07           calculate D2E/DX2 analytically  !
 ! R72   R(66,69)                1.07           calculate D2E/DX2 analytically  !
 ! A1    A(2,1,6)              120.2279         calculate D2E/DX2 analytically  !
 ! A2    A(2,1,23)             110.0821         calculate D2E/DX2 analytically  !
 ! A3    A(6,1,23)             129.6894         calculate D2E/DX2 analytically  !
 ! A4    A(1,2,3)              120.8267         calculate D2E/DX2 analytically  !
 ! A5    A(1,2,11)             107.445          calculate D2E/DX2 analytically  !
 ! A6    A(3,2,11)             131.7279         calculate D2E/DX2 analytically  !
 ! A7    A(2,3,4)              117.9745         calculate D2E/DX2 analytically  !
 ! A8    A(2,3,8)              120.8569         calculate D2E/DX2 analytically  !
 ! A9    A(4,3,8)              121.1685         calculate D2E/DX2 analytically  !
 ! A10   A(3,4,5)              121.8358         calculate D2E/DX2 analytically  !
 ! A11   A(3,4,9)              119.4763         calculate D2E/DX2 analytically  !
 ! A12   A(5,4,9)              118.6879         calculate D2E/DX2 analytically  !
 ! A13   A(4,5,6)              121.7923         calculate D2E/DX2 analytically  !
 ! A14   A(4,5,10)             119.2285         calculate D2E/DX2 analytically  !
 ! A15   A(6,5,10)             118.9791         calculate D2E/DX2 analytically  !
 ! A16   A(1,6,5)              117.3405         calculate D2E/DX2 analytically  !
 ! A17   A(1,6,24)             121.9837         calculate D2E/DX2 analytically  !
 ! A18   A(5,6,24)             120.6727         calculate D2E/DX2 analytically  !
 ! A19   A(11,7,13)            118.8259         calculate D2E/DX2 analytically  !
 ! A20   A(11,7,23)            115.5414         calculate D2E/DX2 analytically  !
 ! A21   A(13,7,23)            125.6326         calculate D2E/DX2 analytically  !
 ! A22   A(2,11,7)             104.1944         calculate D2E/DX2 analytically  !
 ! A23   A(13,12,17)           120.7159         calculate D2E/DX2 analytically  !
 ! A24   A(13,12,22)           119.9985         calculate D2E/DX2 analytically  !
 ! A25   A(17,12,22)           119.2853         calculate D2E/DX2 analytically  !
 ! A26   A(7,13,12)            116.4598         calculate D2E/DX2 analytically  !
 ! A27   A(7,13,14)            124.1684         calculate D2E/DX2 analytically  !
 ! A28   A(12,13,14)           119.3713         calculate D2E/DX2 analytically  !
 ! A29   A(13,14,15)           120.5381         calculate D2E/DX2 analytically  !
 ! A30   A(13,14,18)           118.6495         calculate D2E/DX2 analytically  !
 ! A31   A(15,14,18)           120.8124         calculate D2E/DX2 analytically  !
 ! A32   A(14,15,16)           119.0295         calculate D2E/DX2 analytically  !
 ! A33   A(14,15,20)           121.1444         calculate D2E/DX2 analytically  !
 ! A34   A(16,15,20)           119.8253         calculate D2E/DX2 analytically  !
 ! A35   A(15,16,17)           122.9728         calculate D2E/DX2 analytically  !
 ! A36   A(15,16,19)           118.0598         calculate D2E/DX2 analytically  !
 ! A37   A(17,16,19)           118.9673         calculate D2E/DX2 analytically  !
 ! A38   A(12,17,16)           117.3666         calculate D2E/DX2 analytically  !
 ! A39   A(12,17,21)           119.2726         calculate D2E/DX2 analytically  !
 ! A40   A(16,17,21)           123.3578         calculate D2E/DX2 analytically  !
 ! A41   A(15,20,46)           110.4566         calculate D2E/DX2 analytically  !
 ! A42   A(15,20,50)           110.9814         calculate D2E/DX2 analytically  !
 ! A43   A(15,20,54)           111.3565         calculate D2E/DX2 analytically  !
 ! A44   A(46,20,50)           106.8488         calculate D2E/DX2 analytically  !
 ! A45   A(46,20,54)           108.1591         calculate D2E/DX2 analytically  !
 ! A46   A(50,20,54)           108.8881         calculate D2E/DX2 analytically  !
 ! A47   A(17,21,58)           110.5158         calculate D2E/DX2 analytically  !
 ! A48   A(17,21,62)           111.021          calculate D2E/DX2 analytically  !
 ! A49   A(17,21,66)           110.7941         calculate D2E/DX2 analytically  !
 ! A50   A(58,21,62)           108.7802         calculate D2E/DX2 analytically  !
 ! A51   A(58,21,66)           108.7398         calculate D2E/DX2 analytically  !
 ! A52   A(62,21,66)           106.8814         calculate D2E/DX2 analytically  !
 ! A53   A(12,22,45)           107.3947         calculate D2E/DX2 analytically  !
 ! A54   A(1,23,7)             102.7371         calculate D2E/DX2 analytically  !
 ! A55   A(6,24,25)            119.291          calculate D2E/DX2 analytically  !
 ! A56   A(6,24,26)            122.7873         calculate D2E/DX2 analytically  !
 ! A57   A(25,24,26)           117.9204         calculate D2E/DX2 analytically  !
 ! A58   A(24,26,27)           124.9532         calculate D2E/DX2 analytically  !
 ! A59   A(24,26,44)           116.0683         calculate D2E/DX2 analytically  !
 ! A60   A(27,26,44)           118.9757         calculate D2E/DX2 analytically  !
 ! A61   A(26,27,28)           111.1597         calculate D2E/DX2 analytically  !
 ! A62   A(26,27,29)           111.3011         calculate D2E/DX2 analytically  !
 ! A63   A(26,27,30)           104.818          calculate D2E/DX2 analytically  !
 ! A64   A(28,27,29)           111.3356         calculate D2E/DX2 analytically  !
 ! A65   A(28,27,30)           108.8851         calculate D2E/DX2 analytically  !
 ! A66   A(29,27,30)           109.0932         calculate D2E/DX2 analytically  !
 ! A67   A(27,28,31)           110.0769         calculate D2E/DX2 analytically  !
 ! A68   A(27,28,32)           108.7196         calculate D2E/DX2 analytically  !
 ! A69   A(27,28,33)           109.7386         calculate D2E/DX2 analytically  !
 ! A70   A(31,28,32)           109.8394         calculate D2E/DX2 analytically  !
 ! A71   A(31,28,33)           110.8733         calculate D2E/DX2 analytically  !
 ! A72   A(32,28,33)           107.5322         calculate D2E/DX2 analytically  !
 ! A73   A(27,29,34)           110.2706         calculate D2E/DX2 analytically  !
 ! A74   A(27,29,35)           108.9791         calculate D2E/DX2 analytically  !
 ! A75   A(27,29,36)           109.6554         calculate D2E/DX2 analytically  !
 ! A76   A(34,29,35)           109.1551         calculate D2E/DX2 analytically  !
 ! A77   A(34,29,36)           111.2311         calculate D2E/DX2 analytically  !
 ! A78   A(35,29,36)           107.4793         calculate D2E/DX2 analytically  !
 ! A79   A(28,31,37)           111.5341         calculate D2E/DX2 analytically  !
 ! A80   A(28,31,38)           109.6431         calculate D2E/DX2 analytically  !
 ! A81   A(28,31,39)           108.8335         calculate D2E/DX2 analytically  !
 ! A82   A(37,31,38)           110.6815         calculate D2E/DX2 analytically  !
 ! A83   A(37,31,39)           109.2316         calculate D2E/DX2 analytically  !
 ! A84   A(38,31,39)           106.7827         calculate D2E/DX2 analytically  !
 ! A85   A(29,34,37)           111.3262         calculate D2E/DX2 analytically  !
 ! A86   A(29,34,40)           109.3502         calculate D2E/DX2 analytically  !
 ! A87   A(29,34,41)           109.1432         calculate D2E/DX2 analytically  !
 ! A88   A(37,34,40)           110.6095         calculate D2E/DX2 analytically  !
 ! A89   A(37,34,41)           109.4058         calculate D2E/DX2 analytically  !
 ! A90   A(40,34,41)           106.8934         calculate D2E/DX2 analytically  !
 ! A91   A(31,37,34)           111.096          calculate D2E/DX2 analytically  !
 ! A92   A(31,37,42)           110.24           calculate D2E/DX2 analytically  !
 ! A93   A(31,37,43)           109.1977         calculate D2E/DX2 analytically  !
 ! A94   A(34,37,42)           110.1751         calculate D2E/DX2 analytically  !
 ! A95   A(34,37,43)           109.067          calculate D2E/DX2 analytically  !
 ! A96   A(42,37,43)           106.9622         calculate D2E/DX2 analytically  !
 ! A97   A(20,46,47)           109.4712         calculate D2E/DX2 analytically  !
 ! A98   A(20,46,48)           109.4712         calculate D2E/DX2 analytically  !
 ! A99   A(20,46,49)           109.4712         calculate D2E/DX2 analytically  !
 ! A100  A(47,46,48)           109.4713         calculate D2E/DX2 analytically  !
 ! A101  A(47,46,49)           109.4712         calculate D2E/DX2 analytically  !
 ! A102  A(48,46,49)           109.4712         calculate D2E/DX2 analytically  !
 ! A103  A(20,50,51)           109.4712         calculate D2E/DX2 analytically  !
 ! A104  A(20,50,52)           109.4712         calculate D2E/DX2 analytically  !
 ! A105  A(20,50,53)           109.4712         calculate D2E/DX2 analytically  !
 ! A106  A(51,50,52)           109.4713         calculate D2E/DX2 analytically  !
 ! A107  A(51,50,53)           109.4712         calculate D2E/DX2 analytically  !
 ! A108  A(52,50,53)           109.4712         calculate D2E/DX2 analytically  !
 ! A109  A(20,54,55)           109.4712         calculate D2E/DX2 analytically  !
 ! A110  A(20,54,56)           109.4712         calculate D2E/DX2 analytically  !
 ! A111  A(20,54,57)           109.4712         calculate D2E/DX2 analytically  !
 ! A112  A(55,54,56)           109.4713         calculate D2E/DX2 analytically  !
 ! A113  A(55,54,57)           109.4712         calculate D2E/DX2 analytically  !
 ! A114  A(56,54,57)           109.4712         calculate D2E/DX2 analytically  !
 ! A115  A(21,58,59)           109.4712         calculate D2E/DX2 analytically  !
 ! A116  A(21,58,60)           109.4712         calculate D2E/DX2 analytically  !
 ! A117  A(21,58,61)           109.4712         calculate D2E/DX2 analytically  !
 ! A118  A(59,58,60)           109.4713         calculate D2E/DX2 analytically  !
 ! A119  A(59,58,61)           109.4712         calculate D2E/DX2 analytically  !
 ! A120  A(60,58,61)           109.4712         calculate D2E/DX2 analytically  !
 ! A121  A(21,62,63)           109.4712         calculate D2E/DX2 analytically  !
 ! A122  A(21,62,64)           109.4712         calculate D2E/DX2 analytically  !
 ! A123  A(21,62,65)           109.4712         calculate D2E/DX2 analytically  !
 ! A124  A(63,62,64)           109.4713         calculate D2E/DX2 analytically  !
 ! A125  A(63,62,65)           109.4712         calculate D2E/DX2 analytically  !
 ! A126  A(64,62,65)           109.4712         calculate D2E/DX2 analytically  !
 ! A127  A(21,66,67)           109.4712         calculate D2E/DX2 analytically  !
 ! A128  A(21,66,68)           109.4712         calculate D2E/DX2 analytically  !
 ! A129  A(21,66,69)           109.4712         calculate D2E/DX2 analytically  !
 ! A130  A(67,66,68)           109.4713         calculate D2E/DX2 analytically  !
 ! A131  A(67,66,69)           109.4712         calculate D2E/DX2 analytically  !
 ! A132  A(68,66,69)           109.4712         calculate D2E/DX2 analytically  !
 ! D1    D(6,1,2,3)              0.5062         calculate D2E/DX2 analytically  !
 ! D2    D(6,1,2,11)          -179.6971         calculate D2E/DX2 analytically  !
 ! D3    D(23,1,2,3)          -179.7451         calculate D2E/DX2 analytically  !
 ! D4    D(23,1,2,11)            0.0516         calculate D2E/DX2 analytically  !
 ! D5    D(2,1,6,5)             -0.1298         calculate D2E/DX2 analytically  !
 ! D6    D(2,1,6,24)           179.237          calculate D2E/DX2 analytically  !
 ! D7    D(23,1,6,5)          -179.8232         calculate D2E/DX2 analytically  !
 ! D8    D(23,1,6,24)           -0.4564         calculate D2E/DX2 analytically  !
 ! D9    D(2,1,23,7)            -0.0648         calculate D2E/DX2 analytically  !
 ! D10   D(6,1,23,7)           179.6531         calculate D2E/DX2 analytically  !
 ! D11   D(1,2,3,4)             -0.5024         calculate D2E/DX2 analytically  !
 ! D12   D(1,2,3,8)            179.626          calculate D2E/DX2 analytically  !
 ! D13   D(11,2,3,4)           179.7575         calculate D2E/DX2 analytically  !
 ! D14   D(11,2,3,8)            -0.1142         calculate D2E/DX2 analytically  !
 ! D15   D(1,2,11,7)            -0.0129         calculate D2E/DX2 analytically  !
 ! D16   D(3,2,11,7)           179.7532         calculate D2E/DX2 analytically  !
 ! D17   D(2,3,4,5)              0.1421         calculate D2E/DX2 analytically  !
 ! D18   D(2,3,4,9)           -179.7545         calculate D2E/DX2 analytically  !
 ! D19   D(8,3,4,5)           -179.9867         calculate D2E/DX2 analytically  !
 ! D20   D(8,3,4,9)              0.1167         calculate D2E/DX2 analytically  !
 ! D21   D(3,4,5,6)              0.2338         calculate D2E/DX2 analytically  !
 ! D22   D(3,4,5,10)          -179.6554         calculate D2E/DX2 analytically  !
 ! D23   D(9,4,5,6)           -179.8689         calculate D2E/DX2 analytically  !
 ! D24   D(9,4,5,10)             0.242          calculate D2E/DX2 analytically  !
 ! D25   D(4,5,6,1)             -0.2312         calculate D2E/DX2 analytically  !
 ! D26   D(4,5,6,24)          -179.6067         calculate D2E/DX2 analytically  !
 ! D27   D(10,5,6,1)           179.6582         calculate D2E/DX2 analytically  !
 ! D28   D(10,5,6,24)            0.2827         calculate D2E/DX2 analytically  !
 ! D29   D(1,6,24,25)         -179.0308         calculate D2E/DX2 analytically  !
 ! D30   D(1,6,24,26)            0.5411         calculate D2E/DX2 analytically  !
 ! D31   D(5,6,24,25)            0.3152         calculate D2E/DX2 analytically  !
 ! D32   D(5,6,24,26)          179.8871         calculate D2E/DX2 analytically  !
 ! D33   D(13,7,11,2)         -179.9346         calculate D2E/DX2 analytically  !
 ! D34   D(23,7,11,2)           -0.0299         calculate D2E/DX2 analytically  !
 ! D35   D(11,7,13,12)          -0.5465         calculate D2E/DX2 analytically  !
 ! D36   D(11,7,13,14)         179.2228         calculate D2E/DX2 analytically  !
 ! D37   D(23,7,13,12)         179.5594         calculate D2E/DX2 analytically  !
 ! D38   D(23,7,13,14)          -0.6714         calculate D2E/DX2 analytically  !
 ! D39   D(11,7,23,1)            0.0607         calculate D2E/DX2 analytically  !
 ! D40   D(13,7,23,1)          179.9579         calculate D2E/DX2 analytically  !
 ! D41   D(17,12,13,7)        -179.3425         calculate D2E/DX2 analytically  !
 ! D42   D(17,12,13,14)          0.8766         calculate D2E/DX2 analytically  !
 ! D43   D(22,12,13,7)           0.8449         calculate D2E/DX2 analytically  !
 ! D44   D(22,12,13,14)       -178.936          calculate D2E/DX2 analytically  !
 ! D45   D(13,12,17,16)         -0.6623         calculate D2E/DX2 analytically  !
 ! D46   D(13,12,17,21)        179.9416         calculate D2E/DX2 analytically  !
 ! D47   D(22,12,17,16)        179.1517         calculate D2E/DX2 analytically  !
 ! D48   D(22,12,17,21)         -0.2444         calculate D2E/DX2 analytically  !
 ! D49   D(13,12,22,45)         -0.6748         calculate D2E/DX2 analytically  !
 ! D50   D(17,12,22,45)        179.5099         calculate D2E/DX2 analytically  !
 ! D51   D(7,13,14,15)         179.8172         calculate D2E/DX2 analytically  !
 ! D52   D(7,13,14,18)          -0.1334         calculate D2E/DX2 analytically  !
 ! D53   D(12,13,14,15)         -0.4198         calculate D2E/DX2 analytically  !
 ! D54   D(12,13,14,18)        179.6295         calculate D2E/DX2 analytically  !
 ! D55   D(13,14,15,16)         -0.2151         calculate D2E/DX2 analytically  !
 ! D56   D(13,14,15,20)       -179.8942         calculate D2E/DX2 analytically  !
 ! D57   D(18,14,15,16)        179.7345         calculate D2E/DX2 analytically  !
 ! D58   D(18,14,15,20)          0.0554         calculate D2E/DX2 analytically  !
 ! D59   D(14,15,16,17)          0.4345         calculate D2E/DX2 analytically  !
 ! D60   D(14,15,16,19)       -179.5952         calculate D2E/DX2 analytically  !
 ! D61   D(20,15,16,17)       -179.8821         calculate D2E/DX2 analytically  !
 ! D62   D(20,15,16,19)          0.0882         calculate D2E/DX2 analytically  !
 ! D63   D(14,15,20,46)         67.075          calculate D2E/DX2 analytically  !
 ! D64   D(14,15,20,50)        -51.2436         calculate D2E/DX2 analytically  !
 ! D65   D(14,15,20,54)       -172.7252         calculate D2E/DX2 analytically  !
 ! D66   D(16,15,20,46)       -112.6016         calculate D2E/DX2 analytically  !
 ! D67   D(16,15,20,50)        129.0799         calculate D2E/DX2 analytically  !
 ! D68   D(16,15,20,54)          7.5982         calculate D2E/DX2 analytically  !
 ! D69   D(15,16,17,12)          0.0111         calculate D2E/DX2 analytically  !
 ! D70   D(15,16,17,21)        179.3804         calculate D2E/DX2 analytically  !
 ! D71   D(19,16,17,12)       -179.959          calculate D2E/DX2 analytically  !
 ! D72   D(19,16,17,21)         -0.5897         calculate D2E/DX2 analytically  !
 ! D73   D(12,17,21,58)       -178.3549         calculate D2E/DX2 analytically  !
 ! D74   D(12,17,21,62)        -57.5547         calculate D2E/DX2 analytically  !
 ! D75   D(12,17,21,66)         61.046          calculate D2E/DX2 analytically  !
 ! D76   D(16,17,21,58)          2.2873         calculate D2E/DX2 analytically  !
 ! D77   D(16,17,21,62)        123.0874         calculate D2E/DX2 analytically  !
 ! D78   D(16,17,21,66)       -118.3119         calculate D2E/DX2 analytically  !
 ! D79   D(15,20,46,47)        153.5831         calculate D2E/DX2 analytically  !
 ! D80   D(15,20,46,48)        -86.4169         calculate D2E/DX2 analytically  !
 ! D81   D(15,20,46,49)         33.5831         calculate D2E/DX2 analytically  !
 ! D82   D(50,20,46,47)        -85.6015         calculate D2E/DX2 analytically  !
 ! D83   D(50,20,46,48)         34.3985         calculate D2E/DX2 analytically  !
 ! D84   D(50,20,46,49)        154.3985         calculate D2E/DX2 analytically  !
 ! D85   D(54,20,46,47)         31.4828         calculate D2E/DX2 analytically  !
 ! D86   D(54,20,46,48)        151.4829         calculate D2E/DX2 analytically  !
 ! D87   D(54,20,46,49)        -88.5171         calculate D2E/DX2 analytically  !
 ! D88   D(15,20,50,51)         78.8036         calculate D2E/DX2 analytically  !
 ! D89   D(15,20,50,52)       -161.1964         calculate D2E/DX2 analytically  !
 ! D90   D(15,20,50,53)        -41.1964         calculate D2E/DX2 analytically  !
 ! D91   D(46,20,50,51)        -41.6768         calculate D2E/DX2 analytically  !
 ! D92   D(46,20,50,52)         78.3232         calculate D2E/DX2 analytically  !
 ! D93   D(46,20,50,53)       -161.6768         calculate D2E/DX2 analytically  !
 ! D94   D(54,20,50,51)       -158.2784         calculate D2E/DX2 analytically  !
 ! D95   D(54,20,50,52)        -38.2784         calculate D2E/DX2 analytically  !
 ! D96   D(54,20,50,53)         81.7216         calculate D2E/DX2 analytically  !
 ! D97   D(15,20,54,55)        -62.8363         calculate D2E/DX2 analytically  !
 ! D98   D(15,20,54,56)         57.1637         calculate D2E/DX2 analytically  !
 ! D99   D(15,20,54,57)        177.1637         calculate D2E/DX2 analytically  !
 ! D100  D(46,20,54,55)         58.7099         calculate D2E/DX2 analytically  !
 ! D101  D(46,20,54,56)        178.71           calculate D2E/DX2 analytically  !
 ! D102  D(46,20,54,57)        -61.29           calculate D2E/DX2 analytically  !
 ! D103  D(50,20,54,55)        174.4711         calculate D2E/DX2 analytically  !
 ! D104  D(50,20,54,56)        -65.5289         calculate D2E/DX2 analytically  !
 ! D105  D(50,20,54,57)         54.4711         calculate D2E/DX2 analytically  !
 ! D106  D(17,21,58,59)        -61.3097         calculate D2E/DX2 analytically  !
 ! D107  D(17,21,58,60)         58.6903         calculate D2E/DX2 analytically  !
 ! D108  D(17,21,58,61)        178.6903         calculate D2E/DX2 analytically  !
 ! D109  D(62,21,58,59)        176.5643         calculate D2E/DX2 analytically  !
 ! D110  D(62,21,58,60)        -63.4356         calculate D2E/DX2 analytically  !
 ! D111  D(62,21,58,61)         56.5643         calculate D2E/DX2 analytically  !
 ! D112  D(66,21,58,59)         60.5082         calculate D2E/DX2 analytically  !
 ! D113  D(66,21,58,60)       -179.4918         calculate D2E/DX2 analytically  !
 ! D114  D(66,21,58,61)        -59.4918         calculate D2E/DX2 analytically  !
 ! D115  D(17,21,62,63)        -26.107          calculate D2E/DX2 analytically  !
 ! D116  D(17,21,62,64)         93.893          calculate D2E/DX2 analytically  !
 ! D117  D(17,21,62,65)       -146.107          calculate D2E/DX2 analytically  !
 ! D118  D(58,21,62,63)         95.712          calculate D2E/DX2 analytically  !
 ! D119  D(58,21,62,64)       -144.288          calculate D2E/DX2 analytically  !
 ! D120  D(58,21,62,65)        -24.288          calculate D2E/DX2 analytically  !
 ! D121  D(66,21,62,63)       -147.0421         calculate D2E/DX2 analytically  !
 ! D122  D(66,21,62,64)        -27.0421         calculate D2E/DX2 analytically  !
 ! D123  D(66,21,62,65)         92.9579         calculate D2E/DX2 analytically  !
 ! D124  D(17,21,66,67)        -90.4253         calculate D2E/DX2 analytically  !
 ! D125  D(17,21,66,68)         29.5747         calculate D2E/DX2 analytically  !
 ! D126  D(17,21,66,69)        149.5747         calculate D2E/DX2 analytically  !
 ! D127  D(58,21,66,67)        147.9265         calculate D2E/DX2 analytically  !
 ! D128  D(58,21,66,68)        -92.0735         calculate D2E/DX2 analytically  !
 ! D129  D(58,21,66,69)         27.9265         calculate D2E/DX2 analytically  !
 ! D130  D(62,21,66,67)         30.654          calculate D2E/DX2 analytically  !
 ! D131  D(62,21,66,68)        150.654          calculate D2E/DX2 analytically  !
 ! D132  D(62,21,66,69)        -89.346          calculate D2E/DX2 analytically  !
 ! D133  D(6,24,26,27)        -178.891          calculate D2E/DX2 analytically  !
 ! D134  D(6,24,26,44)           0.4869         calculate D2E/DX2 analytically  !
 ! D135  D(25,24,26,27)          0.6865         calculate D2E/DX2 analytically  !
 ! D136  D(25,24,26,44)       -179.9356         calculate D2E/DX2 analytically  !
 ! D137  D(24,26,27,28)        -68.8763         calculate D2E/DX2 analytically  !
 ! D138  D(24,26,27,29)         55.8501         calculate D2E/DX2 analytically  !
 ! D139  D(24,26,27,30)        173.6456         calculate D2E/DX2 analytically  !
 ! D140  D(44,26,27,28)        111.7625         calculate D2E/DX2 analytically  !
 ! D141  D(44,26,27,29)       -123.5111         calculate D2E/DX2 analytically  !
 ! D142  D(44,26,27,30)         -5.7156         calculate D2E/DX2 analytically  !
 ! D143  D(26,27,28,31)       -178.1834         calculate D2E/DX2 analytically  !
 ! D144  D(26,27,28,32)         61.4603         calculate D2E/DX2 analytically  !
 ! D145  D(26,27,28,33)        -55.8952         calculate D2E/DX2 analytically  !
 ! D146  D(29,27,28,31)         57.1096         calculate D2E/DX2 analytically  !
 ! D147  D(29,27,28,32)        -63.2467         calculate D2E/DX2 analytically  !
 ! D148  D(29,27,28,33)        179.3978         calculate D2E/DX2 analytically  !
 ! D149  D(30,27,28,31)        -63.2066         calculate D2E/DX2 analytically  !
 ! D150  D(30,27,28,32)        176.4371         calculate D2E/DX2 analytically  !
 ! D151  D(30,27,28,33)         59.0817         calculate D2E/DX2 analytically  !
 ! D152  D(26,27,29,34)        178.1152         calculate D2E/DX2 analytically  !
 ! D153  D(26,27,29,35)        -62.0885         calculate D2E/DX2 analytically  !
 ! D154  D(26,27,29,36)         55.3064         calculate D2E/DX2 analytically  !
 ! D155  D(28,27,29,34)        -57.2573         calculate D2E/DX2 analytically  !
 ! D156  D(28,27,29,35)         62.5391         calculate D2E/DX2 analytically  !
 ! D157  D(28,27,29,36)        179.9339         calculate D2E/DX2 analytically  !
 ! D158  D(30,27,29,34)         62.9362         calculate D2E/DX2 analytically  !
 ! D159  D(30,27,29,35)       -177.2675         calculate D2E/DX2 analytically  !
 ! D160  D(30,27,29,36)        -59.8727         calculate D2E/DX2 analytically  !
 ! D161  D(27,28,31,37)        -56.0077         calculate D2E/DX2 analytically  !
 ! D162  D(27,28,31,38)       -178.9626         calculate D2E/DX2 analytically  !
 ! D163  D(27,28,31,39)         64.5712         calculate D2E/DX2 analytically  !
 ! D164  D(32,28,31,37)         63.6706         calculate D2E/DX2 analytically  !
 ! D165  D(32,28,31,38)        -59.2843         calculate D2E/DX2 analytically  !
 ! D166  D(32,28,31,39)       -175.7505         calculate D2E/DX2 analytically  !
 ! D167  D(33,28,31,37)       -177.6227         calculate D2E/DX2 analytically  !
 ! D168  D(33,28,31,38)         59.4224         calculate D2E/DX2 analytically  !
 ! D169  D(33,28,31,39)        -57.0438         calculate D2E/DX2 analytically  !
 ! D170  D(27,29,34,37)         56.0722         calculate D2E/DX2 analytically  !
 ! D171  D(27,29,34,40)        178.5926         calculate D2E/DX2 analytically  !
 ! D172  D(27,29,34,41)        -64.797          calculate D2E/DX2 analytically  !
 ! D173  D(35,29,34,37)        -63.6176         calculate D2E/DX2 analytically  !
 ! D174  D(35,29,34,40)         58.9027         calculate D2E/DX2 analytically  !
 ! D175  D(35,29,34,41)        175.5131         calculate D2E/DX2 analytically  !
 ! D176  D(36,29,34,37)        177.9535         calculate D2E/DX2 analytically  !
 ! D177  D(36,29,34,40)        -59.5261         calculate D2E/DX2 analytically  !
 ! D178  D(36,29,34,41)         57.0843         calculate D2E/DX2 analytically  !
 ! D179  D(28,31,37,34)         55.4226         calculate D2E/DX2 analytically  !
 ! D180  D(28,31,37,42)        177.8508         calculate D2E/DX2 analytically  !
 ! D181  D(28,31,37,43)        -64.9145         calculate D2E/DX2 analytically  !
 ! D182  D(38,31,37,34)        177.7826         calculate D2E/DX2 analytically  !
 ! D183  D(38,31,37,42)        -59.7892         calculate D2E/DX2 analytically  !
 ! D184  D(38,31,37,43)         57.4455         calculate D2E/DX2 analytically  !
 ! D185  D(39,31,37,34)        -64.9229         calculate D2E/DX2 analytically  !
 ! D186  D(39,31,37,42)         57.5053         calculate D2E/DX2 analytically  !
 ! D187  D(39,31,37,43)        174.74           calculate D2E/DX2 analytically  !
 ! D188  D(29,34,37,31)        -55.3419         calculate D2E/DX2 analytically  !
 ! D189  D(29,34,37,42)       -177.8077         calculate D2E/DX2 analytically  !
 ! D190  D(29,34,37,43)         65.0726         calculate D2E/DX2 analytically  !
 ! D191  D(40,34,37,31)       -177.134          calculate D2E/DX2 analytically  !
 ! D192  D(40,34,37,42)         60.4002         calculate D2E/DX2 analytically  !
 ! D193  D(40,34,37,43)        -56.7195         calculate D2E/DX2 analytically  !
 ! D194  D(41,34,37,31)         65.3732         calculate D2E/DX2 analytically  !
 ! D195  D(41,34,37,42)        -57.0925         calculate D2E/DX2 analytically  !
 ! D196  D(41,34,37,43)       -174.2123         calculate D2E/DX2 analytically  !
 --------------------------------------------------------------------------------
 Trust Radius=3.00D-01 FncErr=5.00D-06 GrdErr=5.00D-06 EigMax=2.50D+02 EigMin=1.00D-04
 Number of steps in this run=    410 maximum allowed number of steps=    414.
 GradGradGradGradGradGradGradGradGradGradGradGradGradGradGradGradGradGrad

 Leave Link  103 at Thu Dec 20 18:56:30 2018, MaxMem=  1342177280 cpu:               0.5 elap:               0.1
 (Enter /gpfs/apps/hpc/Apps/Restricted/Gaussian/Rev_A.03/g16/l202.exe)
 Symmetry turned off by external request.
 Stoichiometry    C28H37N3O(1+,2)
 Framework group  C1[X(C28H37N3O)]
 Deg. of freedom   201
 Full point group                 C1      NOp   1
                          Input orientation:                          
 ---------------------------------------------------------------------
 Center     Atomic      Atomic             Coordinates (Angstroms)
 Number     Number       Type             X           Y           Z
 ---------------------------------------------------------------------
      1          6           0       -0.454249    2.584710    0.251880
      2          6           0       -1.890004    2.740075    0.224848
      3          6           0       -2.475022    4.015700    0.155185
      4          6           0       -1.630935    5.119092    0.124054
      5          6           0       -0.227073    4.983290    0.157437
      6          6           0        0.391084    3.729300    0.218876
      7          6           0       -1.356615    0.664218    0.325090
      8          1           0       -3.551480    4.132484    0.128826
      9          1           0       -2.055882    6.113757    0.074452
     10          1           0        0.391270    5.873029    0.136808
     11          7           0       -2.433728    1.499990    0.272857
     12          6           0       -2.954339   -1.171519    0.394779
     13          6           0       -1.579950   -0.740084    0.383435
     14          6           0       -0.560814   -1.696147    0.424397
     15          6           0       -0.865338   -3.050615    0.484398
     16          6           0       -2.238138   -3.453223    0.508378
     17          6           0       -3.282148   -2.557646    0.465911
     18          1           0        0.468089   -1.359131    0.409213
     19          1           0       -2.457857   -4.513965    0.562046
     20          6           0        0.216749   -4.087369    0.531216
     21          6           0       -4.723333   -2.970454    0.477029
     22          8           0       -3.919951   -0.286214    0.335659
     23          7           0       -0.131371    1.277999    0.313846
     24          6           0        1.814320    3.619934    0.260050
     25          1           0        2.416364    4.521957    0.248442
     26          7           0        2.430831    2.477678    0.319566
     27          6           0        3.895354    2.309960    0.387469
     28          6           0        4.561907    2.720819   -0.932770
     29          6           0        4.489611    3.077405    1.575148
     30          1           0        4.046996    1.239808    0.541864
     31          6           0        6.076165    2.494390   -0.850686
     32          1           0        4.353749    3.781154   -1.116898
     33          1           0        4.127280    2.151778   -1.758419
     34          6           0        6.003638    2.849312    1.650899
     35          1           0        4.293298    4.147686    1.442220
     36          1           0        3.995600    2.765256    2.498835
     37          6           0        6.692596    3.239231    0.338023
     38          1           0        6.545790    2.806429   -1.787512
     39          1           0        6.268172    1.419902   -0.742685
     40          1           0        6.415039    3.422375    2.486474
     41          1           0        6.197692    1.791249    1.863960
     42          1           0        7.765103    3.032824    0.398989
     43          1           0        6.582913    4.319775    0.182867
     44          1           0        1.832902    1.641520    0.327993
     45          1           0       -3.479658    0.649961    0.298631
     46          6           0        0.993333   -3.995283    1.857880
     47          1           0        1.412934   -4.951174    2.092631
     48          1           0        1.778624   -3.274820    1.762209
     49          1           0        0.328017   -3.695872    2.640572
     50          6           0        1.238541   -3.869436   -0.600175
     51          1           0        1.907367   -3.079332   -0.329425
     52          1           0        1.794981   -4.769890   -0.756566
     53          1           0        0.723221   -3.607667   -1.500632
     54          6           0       -0.363152   -5.509043    0.412222
     55          1           0       -1.001441   -5.705019    1.248333
     56          1           0       -0.927037   -5.589572   -0.493564
     57          1           0        0.436105   -6.220323    0.399221
     58          6           0       -4.845494   -4.500762    0.598824
     59          1           0       -4.377453   -4.964164   -0.244442
     60          1           0       -4.364520   -4.826567    1.497387
     61          1           0       -5.879385   -4.774821    0.628150
     62          6           0       -5.475810   -2.317978    1.651615
     63          1           0       -4.785885   -2.099122    2.439655
     64          1           0       -5.937597   -1.411551    1.319890
     65          1           0       -6.226772   -2.989918    2.011410
     66          6           0       -5.431386   -2.518777   -0.813804
     67          1           0       -5.848471   -1.544043   -0.669465
     68          1           0       -4.724596   -2.488994   -1.616587
     69          1           0       -6.213050   -3.209466   -1.052236
 ---------------------------------------------------------------------
 Rotational constants (GHZ):           0.1862781           0.0714923           0.0539643
 Leave Link  202 at Thu Dec 20 18:56:30 2018, MaxMem=  1342177280 cpu:               0.4 elap:               0.0
 (Enter /gpfs/apps/hpc/Apps/Restricted/Gaussian/Rev_A.03/g16/l301.exe)
 Standard basis: 6-31G(d,p) (6D, 7F)
 Ernie: Thresh=  0.10000D-02 Tol=  0.10000D-05 Strict=F.
   665 basis functions,  1155 primitive gaussians,   665 cartesian basis functions
   117 alpha electrons      116 beta electrons
       nuclear repulsion energy      3180.2827020943 Hartrees.
 IExCor=  402 DFT=T Ex+Corr=B3LYP ExCW=0 ScaHFX=  0.200000
 ScaDFX=  0.800000  0.720000  1.000000  0.810000 ScalE2=  1.000000  1.000000
 IRadAn=      5 IRanWt=     -1 IRanGd=            0 ICorTp=0 IEmpDi=141
 NAtoms=   69 NActive=   69 NUniq=   69 SFac= 1.00D+00 NAtFMM=   60 NAOKFM=T Big=T
 Integral buffers will be    131072 words long.
 Raffenetti 2 integral format.
 Two-electron integral symmetry is turned off.
 R6Disp:  Grimme-D3(BJ) Dispersion energy=       -0.1503673996 Hartrees.
 Nuclear repulsion after empirical dispersion term =     3180.1323346947 Hartrees.
 Force inversion solution in PCM.
 Using the following non-standard input for PCM:
 radii=bondi
 dis
 rep
 cav
 --- end of non-standard input.
 Force inversion solution in PCM.
 ------------------------------------------------------------------------------
 Polarizable Continuum Model (PCM)
 =================================
 Model                : C-PCM.
 Atomic radii         : Bondi.
 Polarization charges : Total charges.
 Charge compensation  : None.
 Solution method      : Matrix inversion.
 Cavity type          : Scaled VdW (van der Waals Surface) (Alpha=1.100).
 Cavity algorithm     : GePol (No added spheres)
                        Default sphere list used, NSphG=   69.
                        Lebedev-Laikov grids with approx.  5.0 points / Ang**2.
                        Smoothing algorithm: York/Karplus (Gamma=1.0000).
                        Polarization charges: spherical gaussians, with
                                              point-specific exponents (IZeta= 3).
                        Self-potential: point-specific (ISelfS= 7).
                        Self-field    : sphere-specific E.n sum rule (ISelfD= 2).
 1st derivatives      : Analytical E(r).r(x)/FMM algorithm (CHGder, D1EAlg=3).
                        Cavity 1st derivative terms included.
 2nd derivatives      : Analytical E(r).r(xy)/FMM algorithm (CHGder, D2EAlg=3).
                        Cavity 2nd derivative terms included.
 Solvent              : Dichloromethane, Eps=   8.930000 Eps(inf)=   2.028346
 ------------------------------------------------------------------------------
 GePol: Number of generator spheres                  =      69
 GePol: Total number of spheres                      =      69
 GePol: Number of exposed spheres                    =      69 (100.00%)
 GePol: Number of points                             =    4277
 GePol: Average weight of points                     =       0.12
 GePol: Minimum weight of points                     =   0.36D-11
 GePol: Maximum weight of points                     =    0.21770
 GePol: Number of points with low weight             =     300
 GePol: Fraction of low-weight points (<1% of avg)   =       7.01%
 GePol: Cavity surface area                          =    511.735 Ang**2
 GePol: Cavity volume                                =    495.409 Ang**3
 PCM non-electrostatic energy =         0.0240348096 Hartrees.
 Nuclear repulsion after PCM non-electrostatic terms =     3180.1563695043 Hartrees.
 Leave Link  301 at Thu Dec 20 18:56:30 2018, MaxMem=  1342177280 cpu:               4.2 elap:               0.3
 (Enter /gpfs/apps/hpc/Apps/Restricted/Gaussian/Rev_A.03/g16/l302.exe)
 NPDir=0 NMtPBC=     1 NCelOv=     1 NCel=       1 NClECP=     1 NCelD=      1
         NCelK=      1 NCelE2=     1 NClLst=     1 CellRange=     0.0.
 One-electron integrals computed using PRISM.
 NBasis=   665 RedAO= T EigKep=  3.03D-04  NBF=   665
 NBsUse=   665 1.00D-06 EigRej= -1.00D+00 NBFU=   665
 Precomputing XC quadrature grid using
 IXCGrd= 4 IRadAn=           5 IRanWt=          -1 IRanGd=           0 AccXCQ= 0.00D+00.
 Generated NRdTot=       0 NPtTot=           0 NUsed=           0 NTot=          32
 NSgBfM=   646   646   646   646   646 MxSgAt=    69 MxSgA2=    69.
 Leave Link  302 at Thu Dec 20 18:56:32 2018, MaxMem=  1342177280 cpu:              24.3 elap:               1.6
 (Enter /gpfs/apps/hpc/Apps/Restricted/Gaussian/Rev_A.03/g16/l303.exe)
 DipDrv:  MaxL=1.
 Leave Link  303 at Thu Dec 20 18:56:32 2018, MaxMem=  1342177280 cpu:               2.2 elap:               0.3
 (Enter /gpfs/apps/hpc/Apps/Restricted/Gaussian/Rev_A.03/g16/l401.exe)
 ExpMin= 1.61D-01 ExpMax= 5.48D+03 ExpMxC= 8.25D+02 IAcc=3 IRadAn=         5 AccDes= 0.00D+00
 Harris functional with IExCor=  402 and IRadAn=       5 diagonalized for initial guess.
 HarFok:  IExCor=  402 AccDes= 0.00D+00 IRadAn=         5 IDoV= 1 UseB2=F ITyADJ=14
 ICtDFT=  3500011 ScaDFX=  1.000000  1.000000  1.000000  1.000000
 FoFCou: FMM=F IPFlag=           0 FMFlag=      100000 FMFlg1=        2001
         NFxFlg=           0 DoJE=T BraDBF=F KetDBF=T FulRan=T
         wScrn=  0.000000 ICntrl=       500 IOpCl=  0 I1Cent=   200000004 NGrid=           0
         NMat0=    1 NMatS0=      1 NMatT0=    0 NMatD0=    1 NMtDS0=    0 NMtDT0=    0
 Symmetry not used in FoFCou.
 Harris En= -1328.77936706842    
 JPrj=0 DoOrth=F DoCkMO=F.
 Initial guess <Sx>= 0.0000 <Sy>= 0.0000 <Sz>= 0.5000 <S**2>= 0.7500 S= 0.5000
 Leave Link  401 at Thu Dec 20 18:56:38 2018, MaxMem=  1342177280 cpu:              90.5 elap:               5.7
 (Enter /gpfs/apps/hpc/Apps/Restricted/Gaussian/Rev_A.03/g16/l502.exe)
 Two-electron integral symmetry not used.
 UHF open shell SCF:
 Using DIIS extrapolation, IDIIS=  1040.
 NGot=  1342177280 LenX=  1341276554 LenY=  1340833664
 Requested convergence on RMS density matrix=1.00D-08 within 128 cycles.
 Requested convergence on MAX density matrix=1.00D-06.
 Requested convergence on             energy=1.00D-06.
 No special actions if energy rises.
 Fock matrices will be formed incrementally for  20 cycles.

 Cycle   1  Pass 1  IDiag  1:
 FoFJK:  IHMeth= 1 ICntrl=       0 DoSepK=F KAlg= 0 I1Cent=           0 FoldK=F
 IRaf= 760000000 NMat=       1 IRICut=       1 DoRegI=T DoRafI=F ISym2E= 0 IDoP0=0 IntGTp=1.
 FoFCou: FMM=T IPFlag=           0 FMFlag=      100000 FMFlg1=        2001
         NFxFlg=           0 DoJE=F BraDBF=F KetDBF=F FulRan=T
         wScrn=  0.000000 ICntrl=         0 IOpCl=  1 I1Cent=           0 NGrid=           0
         NMat0=    1 NMatS0=      1 NMatT0=    0 NMatD0=    1 NMtDS0=    0 NMtDT0=    0
 Symmetry not used in FoFCou.
 FMM levels:  10  Number of levels for PrismC:   9
 Inv3:  Mode=1 IEnd=    54878187.
 Iteration    1 A*A^-1 deviation from unit magnitude is 6.44D-15 for   4255.
 Iteration    1 A*A^-1 deviation from orthogonality  is 2.36D-15 for   4261   1920.
 Iteration    1 A^-1*A deviation from unit magnitude is 6.66D-15 for   4255.
 Iteration    1 A^-1*A deviation from orthogonality  is 2.32D-15 for   4256   4218.
 E= -1327.95132936344    
 DIIS: error= 3.36D-02 at cycle   1 NSaved=   1.
 NSaved= 1 IEnMin= 1 EnMin= -1327.95132936344     IErMin= 1 ErrMin= 3.36D-02
 ErrMax= 3.36D-02  0.00D+00 EMaxC= 1.00D-01 BMatC= 3.17D+00 BMatP= 3.17D+00
 IDIUse=3 WtCom= 6.64D-01 WtEn= 3.36D-01
 Coeff-Com:  0.100D+01
 Coeff-En:   0.100D+01
 Coeff:      0.100D+01
 Gap=     0.111 Goal=   None    Shift=    0.000
 Gap=     0.059 Goal=   None    Shift=    0.000
 GapD=    0.059 DampG=0.500 DampE=0.500 DampFc=0.2500 IDamp=-1.
 Damping current iteration by 2.50D-01
 RMSDP=3.15D-03 MaxDP=1.54D-01              OVMax= 4.37D-01

 Cycle   2  Pass 1  IDiag  1:
 RMSU=  7.64D-04    CP:  9.84D-01
 E= -1328.25051795542     Delta-E=       -0.299188591976 Rises=F Damp=T
 DIIS: error= 1.77D-02 at cycle   2 NSaved=   2.
 NSaved= 2 IEnMin= 2 EnMin= -1328.25051795542     IErMin= 2 ErrMin= 1.77D-02
 ErrMax= 1.77D-02  0.00D+00 EMaxC= 1.00D-01 BMatC= 8.42D-01 BMatP= 3.17D+00
 IDIUse=3 WtCom= 8.23D-01 WtEn= 1.77D-01
 Coeff-Com: -0.871D+00 0.187D+01
 Coeff-En:   0.000D+00 0.100D+01
 Coeff:     -0.716D+00 0.172D+01
 Gap=     0.149 Goal=   None    Shift=    0.000
 Gap=     0.052 Goal=   None    Shift=    0.000
 RMSDP=1.18D-03 MaxDP=8.76D-02 DE=-2.99D-01 OVMax= 3.29D-01

 Cycle   3  Pass 1  IDiag  1:
 RMSU=  7.89D-04    CP:  9.54D-01  2.05D+00
 E= -1328.75665900942     Delta-E=       -0.506141054003 Rises=F Damp=F
 DIIS: error= 4.16D-03 at cycle   3 NSaved=   3.
 NSaved= 3 IEnMin= 3 EnMin= -1328.75665900942     IErMin= 3 ErrMin= 4.16D-03
 ErrMax= 4.16D-03  0.00D+00 EMaxC= 1.00D-01 BMatC= 9.29D-02 BMatP= 8.42D-01
 IDIUse=3 WtCom= 9.58D-01 WtEn= 4.16D-02
 Coeff-Com: -0.303D+00 0.679D+00 0.624D+00
 Coeff-En:   0.000D+00 0.000D+00 0.100D+01
 Coeff:     -0.291D+00 0.651D+00 0.640D+00
 Gap=     0.124 Goal=   None    Shift=    0.000
 Gap=     0.053 Goal=   None    Shift=    0.000
 RMSDP=4.03D-04 MaxDP=4.16D-02 DE=-5.06D-01 OVMax= 1.31D-01

 Cycle   4  Pass 1  IDiag  1:
 RMSU=  3.30D-04    CP:  9.57D-01  2.03D+00  7.11D-01
 E= -1328.77104746262     Delta-E=       -0.014388453203 Rises=F Damp=F
 DIIS: error= 3.33D-03 at cycle   4 NSaved=   4.
 NSaved= 4 IEnMin= 4 EnMin= -1328.77104746262     IErMin= 4 ErrMin= 3.33D-03
 ErrMax= 3.33D-03  0.00D+00 EMaxC= 1.00D-01 BMatC= 4.22D-02 BMatP= 9.29D-02
 IDIUse=3 WtCom= 9.67D-01 WtEn= 3.33D-02
 Coeff-Com: -0.343D-01 0.102D+00 0.399D+00 0.533D+00
 Coeff-En:   0.000D+00 0.000D+00 0.298D+00 0.702D+00
 Coeff:     -0.331D-01 0.982D-01 0.396D+00 0.539D+00
 Gap=     0.127 Goal=   None    Shift=    0.000
 Gap=     0.055 Goal=   None    Shift=    0.000
 RMSDP=1.72D-04 MaxDP=2.18D-02 DE=-1.44D-02 OVMax= 3.77D-02

 Cycle   5  Pass 1  IDiag  1:
 RMSU=  9.68D-05    CP:  9.56D-01  2.01D+00  7.99D-01  6.29D-01
 E= -1328.78018224237     Delta-E=       -0.009134779748 Rises=F Damp=F
 DIIS: error= 1.04D-03 at cycle   5 NSaved=   5.
 NSaved= 5 IEnMin= 5 EnMin= -1328.78018224237     IErMin= 5 ErrMin= 1.04D-03
 ErrMax= 1.04D-03  0.00D+00 EMaxC= 1.00D-01 BMatC= 2.58D-03 BMatP= 4.22D-02
 IDIUse=3 WtCom= 9.90D-01 WtEn= 1.04D-02
 Coeff-Com:  0.927D-02-0.671D-02 0.157D+00 0.279D+00 0.561D+00
 Coeff-En:   0.000D+00 0.000D+00 0.000D+00 0.000D+00 0.100D+01
 Coeff:      0.917D-02-0.665D-02 0.156D+00 0.276D+00 0.565D+00
 Gap=     0.125 Goal=   None    Shift=    0.000
 Gap=     0.058 Goal=   None    Shift=    0.000
 RMSDP=5.20D-05 MaxDP=8.47D-03 DE=-9.13D-03 OVMax= 2.29D-02

 Cycle   6  Pass 1  IDiag  1:
 RMSU=  3.94D-05    CP:  9.56D-01  2.01D+00  8.09D-01  6.70D-01  6.89D-01
 E= -1328.78078386815     Delta-E=       -0.000601625782 Rises=F Damp=F
 DIIS: error= 2.95D-04 at cycle   6 NSaved=   6.
 NSaved= 6 IEnMin= 6 EnMin= -1328.78078386815     IErMin= 6 ErrMin= 2.95D-04
 ErrMax= 2.95D-04  0.00D+00 EMaxC= 1.00D-01 BMatC= 2.85D-04 BMatP= 2.58D-03
 IDIUse=3 WtCom= 9.97D-01 WtEn= 2.95D-03
 Coeff-Com:  0.798D-02-0.117D-01 0.521D-01 0.961D-01 0.304D+00 0.552D+00
 Coeff-En:   0.000D+00 0.000D+00 0.000D+00 0.000D+00 0.000D+00 0.100D+01
 Coeff:      0.795D-02-0.116D-01 0.519D-01 0.958D-01 0.303D+00 0.553D+00
 Gap=     0.126 Goal=   None    Shift=    0.000
 Gap=     0.058 Goal=   None    Shift=    0.000
 RMSDP=1.81D-05 MaxDP=2.00D-03 DE=-6.02D-04 OVMax= 6.70D-03

 Cycle   7  Pass 1  IDiag  1:
 RMSU=  1.59D-05    CP:  9.56D-01  2.01D+00  8.10D-01  6.79D-01  7.68D-01
                    CP:  1.02D+00
 E= -1328.78086787209     Delta-E=       -0.000084003942 Rises=F Damp=F
 DIIS: error= 2.10D-04 at cycle   7 NSaved=   7.
 NSaved= 7 IEnMin= 7 EnMin= -1328.78086787209     IErMin= 7 ErrMin= 2.10D-04
 ErrMax= 2.10D-04  0.00D+00 EMaxC= 1.00D-01 BMatC= 4.69D-05 BMatP= 2.85D-04
 IDIUse=3 WtCom= 9.98D-01 WtEn= 2.10D-03
 Coeff-Com:  0.264D-02-0.491D-02-0.363D-02-0.137D-01 0.454D-01 0.236D+00
 Coeff-Com:  0.738D+00
 Coeff-En:   0.000D+00 0.000D+00 0.000D+00 0.000D+00 0.000D+00 0.000D+00
 Coeff-En:   0.100D+01
 Coeff:      0.263D-02-0.490D-02-0.362D-02-0.137D-01 0.453D-01 0.236D+00
 Coeff:      0.739D+00
 Gap=     0.126 Goal=   None    Shift=    0.000
 Gap=     0.059 Goal=   None    Shift=    0.000
 RMSDP=1.57D-05 MaxDP=1.77D-03 DE=-8.40D-05 OVMax= 1.15D-02

 Cycle   8  Pass 1  IDiag  1:
 RMSU=  9.16D-06    CP:  9.56D-01  2.02D+00  8.11D-01  6.88D-01  8.25D-01
                    CP:  1.30D+00  1.14D+00
 E= -1328.78090561187     Delta-E=       -0.000037739779 Rises=F Damp=F
 DIIS: error= 1.01D-04 at cycle   8 NSaved=   8.
 NSaved= 8 IEnMin= 8 EnMin= -1328.78090561187     IErMin= 8 ErrMin= 1.01D-04
 ErrMax= 1.01D-04  0.00D+00 EMaxC= 1.00D-01 BMatC= 2.43D-05 BMatP= 4.69D-05
 IDIUse=3 WtCom= 9.99D-01 WtEn= 1.01D-03
 Coeff-Com: -0.102D-02 0.130D-02-0.191D-01-0.470D-01-0.841D-01-0.140D+00
 Coeff-Com:  0.411D+00 0.879D+00
 Coeff-En:   0.000D+00 0.000D+00 0.000D+00 0.000D+00 0.000D+00 0.000D+00
 Coeff-En:   0.000D+00 0.100D+01
 Coeff:     -0.102D-02 0.130D-02-0.191D-01-0.470D-01-0.840D-01-0.140D+00
 Coeff:      0.411D+00 0.879D+00
 Gap=     0.127 Goal=   None    Shift=    0.000
 Gap=     0.059 Goal=   None    Shift=    0.000
 RMSDP=1.50D-05 MaxDP=1.83D-03 DE=-3.77D-05 OVMax= 1.12D-02

 Cycle   9  Pass 1  IDiag  1:
 RMSU=  4.78D-06    CP:  9.56D-01  2.02D+00  8.11D-01  6.98D-01  8.76D-01
                    CP:  1.54D+00  1.64D+00  1.33D+00
 E= -1328.78092889733     Delta-E=       -0.000023285458 Rises=F Damp=F
 DIIS: error= 5.74D-05 at cycle   9 NSaved=   9.
 NSaved= 9 IEnMin= 9 EnMin= -1328.78092889733     IErMin= 9 ErrMin= 5.74D-05
 ErrMax= 5.74D-05  0.00D+00 EMaxC= 1.00D-01 BMatC= 7.78D-06 BMatP= 2.43D-05
 IDIUse=1 WtCom= 1.00D+00 WtEn= 0.00D+00
 Coeff-Com: -0.981D-03 0.166D-02-0.103D-01-0.272D-01-0.647D-01-0.182D+00
 Coeff-Com:  0.521D-01 0.522D+00 0.709D+00
 Coeff:     -0.981D-03 0.166D-02-0.103D-01-0.272D-01-0.647D-01-0.182D+00
 Coeff:      0.521D-01 0.522D+00 0.709D+00
 Gap=     0.127 Goal=   None    Shift=    0.000
 Gap=     0.059 Goal=   None    Shift=    0.000
 RMSDP=9.06D-06 MaxDP=8.94D-04 DE=-2.33D-05 OVMax= 6.80D-03

 Cycle  10  Pass 1  IDiag  1:
 RMSU=  2.73D-06    CP:  9.56D-01  2.02D+00  8.11D-01  7.01D-01  9.03D-01
                    CP:  1.69D+00  1.90D+00  1.74D+00  1.05D+00
 E= -1328.78093654471     Delta-E=       -0.000007647378 Rises=F Damp=F
 DIIS: error= 4.19D-05 at cycle  10 NSaved=  10.
 NSaved=10 IEnMin=10 EnMin= -1328.78093654471     IErMin=10 ErrMin= 4.19D-05
 ErrMax= 4.19D-05  0.00D+00 EMaxC= 1.00D-01 BMatC= 1.99D-06 BMatP= 7.78D-06
 IDIUse=1 WtCom= 1.00D+00 WtEn= 0.00D+00
 Coeff-Com:  0.962D-04 0.413D-04 0.101D-02-0.272D-03-0.385D-02-0.526D-01
 Coeff-Com: -0.676D-01-0.262D-01 0.350D+00 0.800D+00
 Coeff:      0.962D-04 0.413D-04 0.101D-02-0.272D-03-0.385D-02-0.526D-01
 Coeff:     -0.676D-01-0.262D-01 0.350D+00 0.800D+00
 Gap=     0.127 Goal=   None    Shift=    0.000
 Gap=     0.059 Goal=   None    Shift=    0.000
 RMSDP=4.60D-06 MaxDP=4.77D-04 DE=-7.65D-06 OVMax= 3.43D-03

 Cycle  11  Pass 1  IDiag  1:
 RMSU=  1.46D-06    CP:  9.56D-01  2.02D+00  8.11D-01  7.03D-01  9.15D-01
                    CP:  1.76D+00  2.03D+00  1.92D+00  1.41D+00  1.22D+00
 E= -1328.78093866191     Delta-E=       -0.000002117198 Rises=F Damp=F
 DIIS: error= 1.85D-05 at cycle  11 NSaved=  11.
 NSaved=11 IEnMin=11 EnMin= -1328.78093866191     IErMin=11 ErrMin= 1.85D-05
 ErrMax= 1.85D-05  0.00D+00 EMaxC= 1.00D-01 BMatC= 6.54D-07 BMatP= 1.99D-06
 IDIUse=1 WtCom= 1.00D+00 WtEn= 0.00D+00
 Coeff-Com:  0.454D-03-0.609D-03 0.468D-02 0.974D-02 0.231D-01 0.348D-01
 Coeff-Com: -0.493D-01-0.224D+00-0.496D-01 0.457D+00 0.794D+00
 Coeff:      0.454D-03-0.609D-03 0.468D-02 0.974D-02 0.231D-01 0.348D-01
 Coeff:     -0.493D-01-0.224D+00-0.496D-01 0.457D+00 0.794D+00
 Gap=     0.127 Goal=   None    Shift=    0.000
 Gap=     0.059 Goal=   None    Shift=    0.000
 RMSDP=2.89D-06 MaxDP=3.94D-04 DE=-2.12D-06 OVMax= 2.05D-03

 Cycle  12  Pass 1  IDiag  1:
 RMSU=  7.13D-07    CP:  9.56D-01  2.02D+00  8.11D-01  7.05D-01  9.21D-01
                    CP:  1.79D+00  2.10D+00  2.06D+00  1.62D+00  1.65D+00
                    CP:  1.14D+00
 E= -1328.78093941761     Delta-E=       -0.000000755700 Rises=F Damp=F
 DIIS: error= 1.05D-05 at cycle  12 NSaved=  12.
 NSaved=12 IEnMin=12 EnMin= -1328.78093941761     IErMin=12 ErrMin= 1.05D-05
 ErrMax= 1.05D-05  0.00D+00 EMaxC= 1.00D-01 BMatC= 1.16D-07 BMatP= 6.54D-07
 IDIUse=1 WtCom= 1.00D+00 WtEn= 0.00D+00
 Coeff-Com:  0.135D-03-0.246D-03 0.112D-02 0.271D-02 0.886D-02 0.262D-01
 Coeff-Com:  0.102D-01-0.629D-01-0.116D+00-0.115D+00 0.276D+00 0.969D+00
 Coeff:      0.135D-03-0.246D-03 0.112D-02 0.271D-02 0.886D-02 0.262D-01
 Coeff:      0.102D-01-0.629D-01-0.116D+00-0.115D+00 0.276D+00 0.969D+00
 Gap=     0.127 Goal=   None    Shift=    0.000
 Gap=     0.059 Goal=   None    Shift=    0.000
 RMSDP=1.46D-06 MaxDP=2.40D-04 DE=-7.56D-07 OVMax= 9.84D-04

 Cycle  13  Pass 1  IDiag  1:
 RMSU=  4.02D-07    CP:  9.56D-01  2.02D+00  8.11D-01  7.05D-01  9.23D-01
                    CP:  1.81D+00  2.13D+00  2.12D+00  1.74D+00  1.88D+00
                    CP:  1.51D+00  1.16D+00
 E= -1328.78093958501     Delta-E=       -0.000000167399 Rises=F Damp=F
 DIIS: error= 6.64D-06 at cycle  13 NSaved=  13.
 NSaved=13 IEnMin=13 EnMin= -1328.78093958501     IErMin=13 ErrMin= 6.64D-06
 ErrMax= 6.64D-06  0.00D+00 EMaxC= 1.00D-01 BMatC= 5.89D-08 BMatP= 1.16D-07
 IDIUse=1 WtCom= 1.00D+00 WtEn= 0.00D+00
 Coeff-Com: -0.245D-05-0.369D-04-0.132D-03-0.372D-04 0.149D-02 0.103D-01
 Coeff-Com:  0.129D-01-0.750D-03-0.661D-01-0.162D+00 0.245D-01 0.611D+00
 Coeff-Com:  0.570D+00
 Coeff:     -0.245D-05-0.369D-04-0.132D-03-0.372D-04 0.149D-02 0.103D-01
 Coeff:      0.129D-01-0.750D-03-0.661D-01-0.162D+00 0.245D-01 0.611D+00
 Coeff:      0.570D+00
 Gap=     0.127 Goal=   None    Shift=    0.000
 Gap=     0.059 Goal=   None    Shift=    0.000
 RMSDP=5.90D-07 MaxDP=7.92D-05 DE=-1.67D-07 OVMax= 3.49D-04

 Cycle  14  Pass 1  IDiag  1:
 RMSU=  1.97D-07    CP:  9.56D-01  2.02D+00  8.11D-01  7.05D-01  9.24D-01
                    CP:  1.81D+00  2.14D+00  2.14D+00  1.78D+00  1.96D+00
                    CP:  1.61D+00  1.42D+00  8.28D-01
 E= -1328.78093961727     Delta-E=       -0.000000032263 Rises=F Damp=F
 DIIS: error= 1.76D-06 at cycle  14 NSaved=  14.
 NSaved=14 IEnMin=14 EnMin= -1328.78093961727     IErMin=14 ErrMin= 1.76D-06
 ErrMax= 1.76D-06  0.00D+00 EMaxC= 1.00D-01 BMatC= 6.86D-09 BMatP= 5.89D-08
 IDIUse=1 WtCom= 1.00D+00 WtEn= 0.00D+00
 Coeff-Com: -0.448D-04 0.616D-04-0.413D-03-0.939D-03-0.199D-02-0.265D-02
 Coeff-Com:  0.438D-02 0.215D-01 0.215D-02-0.489D-01-0.646D-01 0.289D-01
 Coeff-Com:  0.255D+00 0.807D+00
 Coeff:     -0.448D-04 0.616D-04-0.413D-03-0.939D-03-0.199D-02-0.265D-02
 Coeff:      0.438D-02 0.215D-01 0.215D-02-0.489D-01-0.646D-01 0.289D-01
 Coeff:      0.255D+00 0.807D+00
 Gap=     0.127 Goal=   None    Shift=    0.000
 Gap=     0.059 Goal=   None    Shift=    0.000
 RMSDP=1.96D-07 MaxDP=3.29D-05 DE=-3.23D-08 OVMax= 9.77D-05

 Cycle  15  Pass 1  IDiag  1:
 RMSU=  9.26D-08    CP:  9.56D-01  2.02D+00  8.11D-01  7.05D-01  9.25D-01
                    CP:  1.82D+00  2.14D+00  2.14D+00  1.79D+00  1.98D+00
                    CP:  1.66D+00  1.51D+00  1.08D+00  1.00D+00
 E= -1328.78093962221     Delta-E=       -0.000000004946 Rises=F Damp=F
 DIIS: error= 8.82D-07 at cycle  15 NSaved=  15.
 NSaved=15 IEnMin=15 EnMin= -1328.78093962221     IErMin=15 ErrMin= 8.82D-07
 ErrMax= 8.82D-07  0.00D+00 EMaxC= 1.00D-01 BMatC= 2.48D-09 BMatP= 6.86D-09
 IDIUse=1 WtCom= 1.00D+00 WtEn= 0.00D+00
 Coeff-Com: -0.207D-04 0.351D-04-0.205D-03-0.514D-03-0.139D-02-0.335D-02
 Coeff-Com: -0.565D-03 0.114D-01 0.132D-01 0.334D-02-0.373D-01-0.890D-01
 Coeff-Com:  0.119D-01 0.443D+00 0.649D+00
 Coeff:     -0.207D-04 0.351D-04-0.205D-03-0.514D-03-0.139D-02-0.335D-02
 Coeff:     -0.565D-03 0.114D-01 0.132D-01 0.334D-02-0.373D-01-0.890D-01
 Coeff:      0.119D-01 0.443D+00 0.649D+00
 Gap=     0.127 Goal=   None    Shift=    0.000
 Gap=     0.059 Goal=   None    Shift=    0.000
 RMSDP=9.53D-08 MaxDP=1.22D-05 DE=-4.95D-09 OVMax= 4.60D-05

 Cycle  16  Pass 1  IDiag  1:
 RMSU=  4.53D-08    CP:  9.56D-01  2.02D+00  8.11D-01  7.05D-01  9.25D-01
                    CP:  1.82D+00  2.14D+00  2.15D+00  1.80D+00  1.99D+00
                    CP:  1.67D+00  1.55D+00  1.14D+00  1.22D+00  9.07D-01
 E= -1328.78093962358     Delta-E=       -0.000000001362 Rises=F Damp=F
 DIIS: error= 4.16D-07 at cycle  16 NSaved=  16.
 NSaved=16 IEnMin=16 EnMin= -1328.78093962358     IErMin=16 ErrMin= 4.16D-07
 ErrMax= 4.16D-07  0.00D+00 EMaxC= 1.00D-01 BMatC= 4.96D-10 BMatP= 2.48D-09
 IDIUse=1 WtCom= 1.00D+00 WtEn= 0.00D+00
 Coeff-Com:  0.103D-04-0.109D-04 0.601D-04 0.966D-04 0.645D-04-0.549D-03
 Coeff-Com: -0.182D-02-0.219D-02 0.578D-02 0.194D-01 0.500D-02-0.536D-01
 Coeff-Com: -0.105D+00-0.548D-01 0.337D+00 0.851D+00
 Coeff:      0.103D-04-0.109D-04 0.601D-04 0.966D-04 0.645D-04-0.549D-03
 Coeff:     -0.182D-02-0.219D-02 0.578D-02 0.194D-01 0.500D-02-0.536D-01
 Coeff:     -0.105D+00-0.548D-01 0.337D+00 0.851D+00
 Gap=     0.127 Goal=   None    Shift=    0.000
 Gap=     0.059 Goal=   None    Shift=    0.000
 RMSDP=5.70D-08 MaxDP=7.03D-06 DE=-1.36D-09 OVMax= 2.91D-05

 Cycle  17  Pass 1  IDiag  1:
 RMSU=  1.73D-08    CP:  9.56D-01  2.02D+00  8.11D-01  7.05D-01  9.25D-01
                    CP:  1.82D+00  2.15D+00  2.15D+00  1.80D+00  1.99D+00
                    CP:  1.68D+00  1.57D+00  1.19D+00  1.34D+00  1.20D+00
                    CP:  1.05D+00
 E= -1328.78093962391     Delta-E=       -0.000000000335 Rises=F Damp=F
 DIIS: error= 1.56D-07 at cycle  17 NSaved=  17.
 NSaved=17 IEnMin=17 EnMin= -1328.78093962391     IErMin=17 ErrMin= 1.56D-07
 ErrMax= 1.56D-07  0.00D+00 EMaxC= 1.00D-01 BMatC= 5.63D-11 BMatP= 4.96D-10
 IDIUse=1 WtCom= 1.00D+00 WtEn= 0.00D+00
 Coeff-Com:  0.655D-05-0.824D-05 0.433D-04 0.845D-04 0.150D-03 0.112D-03
 Coeff-Com: -0.661D-03-0.193D-02 0.981D-03 0.712D-02 0.483D-02-0.116D-01
 Coeff-Com: -0.474D-01-0.615D-01 0.780D-01 0.332D+00 0.700D+00
 Coeff:      0.655D-05-0.824D-05 0.433D-04 0.845D-04 0.150D-03 0.112D-03
 Coeff:     -0.661D-03-0.193D-02 0.981D-03 0.712D-02 0.483D-02-0.116D-01
 Coeff:     -0.474D-01-0.615D-01 0.780D-01 0.332D+00 0.700D+00
 Gap=     0.127 Goal=   None    Shift=    0.000
 Gap=     0.059 Goal=   None    Shift=    0.000
 RMSDP=1.73D-08 MaxDP=1.81D-06 DE=-3.35D-10 OVMax= 9.17D-06

 Cycle  18  Pass 1  IDiag  1:
 RMSU=  8.29D-09    CP:  9.56D-01  2.02D+00  8.11D-01  7.05D-01  9.25D-01
                    CP:  1.82D+00  2.15D+00  2.15D+00  1.80D+00  1.99D+00
                    CP:  1.68D+00  1.57D+00  1.20D+00  1.37D+00  1.25D+00
                    CP:  1.17D+00  1.06D+00
 E= -1328.78093962398     Delta-E=       -0.000000000072 Rises=F Damp=F
 DIIS: error= 9.47D-08 at cycle  18 NSaved=  18.
 NSaved=18 IEnMin=18 EnMin= -1328.78093962398     IErMin=18 ErrMin= 9.47D-08
 ErrMax= 9.47D-08  0.00D+00 EMaxC= 1.00D-01 BMatC= 2.06D-11 BMatP= 5.63D-11
 IDIUse=1 WtCom= 1.00D+00 WtEn= 0.00D+00
 Coeff-Com:  0.126D-05-0.218D-05 0.821D-05 0.191D-04 0.659D-04 0.213D-03
 Coeff-Com:  0.153D-03-0.451D-03-0.108D-02-0.139D-02 0.107D-02 0.960D-02
 Coeff-Com:  0.175D-02-0.176D-01-0.536D-01-0.698D-01 0.402D+00 0.729D+00
 Coeff:      0.126D-05-0.218D-05 0.821D-05 0.191D-04 0.659D-04 0.213D-03
 Coeff:      0.153D-03-0.451D-03-0.108D-02-0.139D-02 0.107D-02 0.960D-02
 Coeff:      0.175D-02-0.176D-01-0.536D-01-0.698D-01 0.402D+00 0.729D+00
 Gap=     0.127 Goal=   None    Shift=    0.000
 Gap=     0.059 Goal=   None    Shift=    0.000
 RMSDP=9.50D-09 MaxDP=1.30D-06 DE=-7.19D-11 OVMax= 5.11D-06

 Cycle  19  Pass 1  IDiag  1:
 RMSU=  4.11D-09    CP:  9.56D-01  2.02D+00  8.11D-01  7.05D-01  9.25D-01
                    CP:  1.82D+00  2.15D+00  2.15D+00  1.80D+00  1.99D+00
                    CP:  1.68D+00  1.58D+00  1.21D+00  1.38D+00  1.28D+00
                    CP:  1.23D+00  1.32D+00  9.83D-01
 E= -1328.78093962405     Delta-E=       -0.000000000064 Rises=F Damp=F
 DIIS: error= 4.34D-08 at cycle  19 NSaved=  19.
 NSaved=19 IEnMin=19 EnMin= -1328.78093962405     IErMin=19 ErrMin= 4.34D-08
 ErrMax= 4.34D-08  0.00D+00 EMaxC= 1.00D-01 BMatC= 3.60D-12 BMatP= 2.06D-11
 IDIUse=1 WtCom= 1.00D+00 WtEn= 0.00D+00
 Coeff-Com: -0.588D-06 0.536D-06-0.448D-05-0.916D-05-0.104D-05 0.632D-04
 Coeff-Com:  0.193D-03 0.209D-03-0.637D-03-0.182D-02-0.619D-03 0.581D-02
 Coeff-Com:  0.815D-02 0.523D-02-0.337D-01-0.843D-01 0.209D-01 0.287D+00
 Coeff-Com:  0.793D+00
 Coeff:     -0.588D-06 0.536D-06-0.448D-05-0.916D-05-0.104D-05 0.632D-04
 Coeff:      0.193D-03 0.209D-03-0.637D-03-0.182D-02-0.619D-03 0.581D-02
 Coeff:      0.815D-02 0.523D-02-0.337D-01-0.843D-01 0.209D-01 0.287D+00
 Coeff:      0.793D+00
 Gap=     0.127 Goal=   None    Shift=    0.000
 Gap=     0.059 Goal=   None    Shift=    0.000
 RMSDP=4.53D-09 MaxDP=6.20D-07 DE=-6.37D-11 OVMax= 2.16D-06

 Error on total polarization charges =  0.04432
 SCF Done:  E(UB3LYP) =  -1328.78093962     A.U. after   19 cycles
            NFock= 19  Conv=0.45D-08     -V/T= 2.0089
 <Sx>= 0.0000 <Sy>= 0.0000 <Sz>= 0.5000 <S**2>= 0.7615 S= 0.5057
 <L.S>= 0.000000000000E+00
 KE= 1.317050255928D+03 PE=-9.414307753601D+03 EE= 3.588320188544D+03
 Annihilation of the first spin contaminant:
 S**2 before annihilation     0.7615,   after     0.7501
 Leave Link  502 at Thu Dec 20 19:02:39 2018, MaxMem=  1342177280 cpu:            5688.5 elap:             361.2
 (Enter /gpfs/apps/hpc/Apps/Restricted/Gaussian/Rev_A.03/g16/l801.exe)
 DoSCS=F DFT=T ScalE2(SS,OS)=  1.000000  1.000000
 Range of M.O.s used for correlation:     1   665
 NBasis=   665 NAE=   117 NBE=   116 NFC=     0 NFV=     0
 NROrb=    665 NOA=   117 NOB=   116 NVA=   548 NVB=   549

 **** Warning!!: The smallest beta delta epsilon is  0.59177187D-01

 Leave Link  801 at Thu Dec 20 19:02:39 2018, MaxMem=  1342177280 cpu:               3.4 elap:               0.3
 (Enter /gpfs/apps/hpc/Apps/Restricted/Gaussian/Rev_A.03/g16/l1101.exe)
 Using compressed storage, NAtomX=    69.
 Will process     70 centers per pass.
 R6Disp: Adding Grimme-D3(BJ) dispersion energy 1st derivatives to the gradient.
 Leave Link 1101 at Thu Dec 20 19:02:41 2018, MaxMem=  1342177280 cpu:              28.0 elap:               1.8
 (Enter /gpfs/apps/hpc/Apps/Restricted/Gaussian/Rev_A.03/g16/l1102.exe)
 Symmetrizing basis deriv contribution to polar:
 IMax=3 JMax=2 DiffMx= 0.00D+00
 Leave Link 1102 at Thu Dec 20 19:02:42 2018, MaxMem=  1342177280 cpu:               2.3 elap:               0.2
 (Enter /gpfs/apps/hpc/Apps/Restricted/Gaussian/Rev_A.03/g16/l1110.exe)
 Forming Gx(P) for the SCF density, NAtomX=    69.
 Integral derivatives from FoFJK, PRISM(SPDF).
 Do as many integral derivatives as possible in FoFJK.
 G2DrvN: MDV=    1342172176.
 G2DrvN: will do    35 centers at a time, making    2 passes.
 G2DrvN:  IPasSy=1 do centers    0 through   34.
 Calling FoFCou, ICntrl=  3107 FMM=T I1Cent=   0 AccDes= 0.00D+00.
 FoFJK:  IHMeth= 1 ICntrl=    3107 DoSepK=F KAlg= 0 I1Cent=           0 FoldK=F
 IRaf=         0 NMat=       1 IRICut=       1 DoRegI=T DoRafI=F ISym2E= 0 IDoP0=0 IntGTp=1.
 FoFCou: FMM=T IPFlag=           0 FMFlag=      100000 FMFlg1=        2001
         NFxFlg=           0 DoJE=F BraDBF=F KetDBF=F FulRan=T
         wScrn=  0.000000 ICntrl=      3107 IOpCl=  1 I1Cent=           0 NGrid=           0
         NMat0=    1 NMatS0=      1 NMatT0=    0 NMatD0=    1 NMtDS0=    0 NMtDT0=    0
 Symmetry not used in FoFCou.
 FMM levels:  10  Number of levels for PrismC:   9
 G2DrvN:  IPasSy=1 do centers   35 through   69.
 Calling FoFCou, ICntrl=  3107 FMM=T I1Cent=   0 AccDes= 0.00D+00.
