 Entering Gaussian System, Link 0=g16
 Initial command:
 /gpfs/apps/hpc/Apps/Restricted/Gaussian/Rev_A.03/g16/l1.exe "/gpfs/scratch60/fas/hammes_schiffer/jg2487/c05n12/Gau-30322.inp" -scrdir="/gpfs/scratch60/fas/hammes_schiffer/jg2487/c05n12/"
 Entering Link 1 = /gpfs/apps/hpc/Apps/Restricted/Gaussian/Rev_A.03/g16/l1.exe PID=     30323.
  
 Copyright (c) 1988,1990,1992,1993,1995,1998,2003,2009,2016,
            Gaussian, Inc.  All Rights Reserved.
  
 This is part of the Gaussian(R) 16 program.  It is based on
 the Gaussian(R) 09 system (copyright 2009, Gaussian, Inc.),
 the Gaussian(R) 03 system (copyright 2003, Gaussian, Inc.),
 the Gaussian(R) 98 system (copyright 1998, Gaussian, Inc.),
 the Gaussian(R) 94 system (copyright 1995, Gaussian, Inc.),
 the Gaussian 92(TM) system (copyright 1992, Gaussian, Inc.),
 the Gaussian 90(TM) system (copyright 1990, Gaussian, Inc.),
 the Gaussian 88(TM) system (copyright 1988, Gaussian, Inc.),
 the Gaussian 86(TM) system (copyright 1986, Carnegie Mellon
 University), and the Gaussian 82(TM) system (copyright 1983,
 Carnegie Mellon University). Gaussian is a federally registered
 trademark of Gaussian, Inc.
  
 This software contains proprietary and confidential information,
 including trade secrets, belonging to Gaussian, Inc.
  
 This software is provided under written license and may be
 used, copied, transmitted, or stored only in accord with that
 written license.
  
 The following legend is applicable only to US Government
 contracts under FAR:
  
                    RESTRICTED RIGHTS LEGEND
  
 Use, reproduction and disclosure by the US Government is
 subject to restrictions as set forth in subparagraphs (a)
 and (c) of the Commercial Computer Software - Restricted
 Rights clause in FAR 52.227-19.
  
 Gaussian, Inc.
 340 Quinnipiac St., Bldg. 40, Wallingford CT 06492
  
  
 ---------------------------------------------------------------
 Warning -- This program may not be used in any manner that
 competes with the business of Gaussian, Inc. or will provide
 assistance to any competitor of Gaussian, Inc.  The licensee
 of this program is prohibited from giving any competitor of
 Gaussian, Inc. access to this program.  By using this program,
 the user acknowledges that Gaussian, Inc. is engaged in the
 business of creating and licensing software in the field of
 computational chemistry and represents and warrants to the
 licensee that it is not a competitor of Gaussian, Inc. and that
 it will not use this program in any manner prohibited above.
 ---------------------------------------------------------------
  

 Cite this work as:
 Gaussian 16, Revision A.03,
 M. J. Frisch, G. W. Trucks, H. B. Schlegel, G. E. Scuseria, 
 M. A. Robb, J. R. Cheeseman, G. Scalmani, V. Barone, 
 G. A. Petersson, H. Nakatsuji, X. Li, M. Caricato, A. V. Marenich, 
 J. Bloino, B. G. Janesko, R. Gomperts, B. Mennucci, H. P. Hratchian, 
 J. V. Ortiz, A. F. Izmaylov, J. L. Sonnenberg, D. Williams-Young, 
 F. Ding, F. Lipparini, F. Egidi, J. Goings, B. Peng, A. Petrone, 
 T. Henderson, D. Ranasinghe, V. G. Zakrzewski, J. Gao, N. Rega, 
 G. Zheng, W. Liang, M. Hada, M. Ehara, K. Toyota, R. Fukuda, 
 J. Hasegawa, M. Ishida, T. Nakajima, Y. Honda, O. Kitao, H. Nakai, 
 T. Vreven, K. Throssell, J. A. Montgomery, Jr., J. E. Peralta, 
 F. Ogliaro, M. J. Bearpark, J. J. Heyd, E. N. Brothers, K. N. Kudin, 
 V. N. Staroverov, T. A. Keith, R. Kobayashi, J. Normand, 
 K. Raghavachari, A. P. Rendell, J. C. Burant, S. S. Iyengar, 
 J. Tomasi, M. Cossi, J. M. Millam, M. Klene, C. Adamo, R. Cammi, 
 J. W. Ochterski, R. L. Martin, K. Morokuma, O. Farkas, 
 J. B. Foresman, and D. J. Fox, Gaussian, Inc., Wallingford CT, 2016.
 
 ******************************************
 Gaussian 16:  ES64L-G16RevA.03 25-Dec-2016
                17-Dec-2018 
 ******************************************
 %chk=cyclohexyl-monoBIP-E1PT_rev.chk
 %mem=10GB
 %nprocshared=16
 Will use up to   16 processors via shared memory.
 ----------------------------------------------------------------------
 #p opt=(tight,calcfc) freq=internalmodes b3lyp/6-31g(d,p) scrf=(cpcm,s
 olvent=dichloromethane,read) nosymm empiricaldispersion=gd3bj int=grid
 =ultrafine guess=check
 ----------------------------------------------------------------------
 1/7=10,10=4,18=20,19=15,26=6,38=1,40=2/1,3;
 2/9=110,12=2,15=1,17=6,18=5,40=1/2;
 3/5=1,6=6,7=101,11=2,25=1,30=1,70=2103,71=2,72=9,74=-5,75=-5,116=-2,124=41,140=1/1,2,3;
 4/5=1/1;
 5/5=2,38=6,53=9/2;
 8/6=4,10=90,11=11/1;
 11/6=1,8=1,9=11,15=111,16=1,31=1/1,2,10;
 10/6=1,13=1,31=1/2;
 6/7=2,8=2,9=2,10=2,28=1/1;
 7/10=1,18=20,25=1,30=1/1,2,3,16;
 1/7=10,10=4,18=20,19=15,26=6/3(2);
 2/9=110,15=1/2;
 99//99;
 2/9=110,15=1/2;
 3/5=1,6=6,7=101,11=2,25=1,30=1,70=2105,71=1,72=9,74=-5,75=-5,124=41/1,2,3;
 4/5=5,16=3,69=1/1;
 5/5=2,38=5,53=9/2;
 7/30=1/1,2,3,16;
 1/7=10,18=20,19=15,26=6/3(-5);
 2/9=110,15=1/2;
 6/7=2,8=2,9=2,10=2,19=2,28=1/1;
 99/9=1/99;
 Leave Link    1 at Mon Dec 17 12:55:16 2018, MaxMem=  1342177280 cpu:               5.8 elap:               0.4
 (Enter /gpfs/apps/hpc/Apps/Restricted/Gaussian/Rev_A.03/g16/l101.exe)
 ----------------------------------------------------------------------
 cyclohexylimine monoBIP oxidized, with proton on imine and phenol opti
 mization
 ----------------------------------------------------------------------
 Symbolic Z-matrix:
 Charge =  1 Multiplicity = 2
 C                    -0.45425   2.58471   0.25188 
 C                    -1.89      2.74008   0.22485 
 C                    -2.47502   4.0157    0.15519 
 C                    -1.63094   5.11909   0.12405 
 C                    -0.22707   4.98329   0.15744 
 C                     0.39108   3.7293    0.21888 
 C                    -1.35662   0.66422   0.32509 
 H                    -3.55148   4.13248   0.12883 
 H                    -2.05588   6.11376   0.07445 
 H                     0.39127   5.87303   0.13681 
 N                    -2.43373   1.49999   0.27286 
 C                    -2.95434  -1.17152   0.39478 
 C                    -1.57995  -0.74008   0.38344 
 C                    -0.56081  -1.69615   0.4244 
 C                    -0.86534  -3.05062   0.4844 
 C                    -2.23814  -3.45322   0.50838 
 C                    -3.28215  -2.55765   0.46591 
 H                     0.46809  -1.35913   0.40921 
 H                    -2.45786  -4.51397   0.56205 
 C                     0.21675  -4.08737   0.53122 
 H                     0.94211  -3.93266  -0.27195 
 H                     0.76896  -4.02189   1.47457 
 H                    -0.19374  -5.09372   0.44699 
 C                    -4.72333  -2.97045   0.47703 
 H                    -5.25757  -2.50721   1.31095 
 H                    -5.22621  -2.64966  -0.43975 
 H                    -4.80978  -4.05343   0.56322 
 O                    -3.91995  -0.28621   0.33566 
 N                    -0.13137   1.278     0.31385 
 C                     1.81432   3.61993   0.26005 
 H                     2.41636   4.52196   0.24844 
 N                     2.43083   2.47768   0.31957 
 C                     3.89535   2.30996   0.38747 
 C                     4.56191   2.72082  -0.93277 
 C                     4.48961   3.07741   1.57515 
 H                     4.047     1.23981   0.54186 
 C                     6.07616   2.49439  -0.85069 
 H                     4.35375   3.78115  -1.1169 
 H                     4.12728   2.15178  -1.75842 
 C                     6.00364   2.84931   1.6509 
 H                     4.2933    4.14769   1.44222 
 H                     3.9956    2.76526   2.49884 
 C                     6.6926    3.23923   0.33802 
 H                     6.54579   2.80643  -1.78751 
 H                     6.26817   1.4199   -0.74269 
 H                     6.41504   3.42238   2.48647 
 H                     6.19769   1.79125   1.86396 
 H                     7.7651    3.03282   0.39899 
 H                     6.58291   4.31977   0.18287 
 H                     1.8329    1.64152   0.32799 
 H                    -3.47966   0.64996   0.29863 
 
 ITRead=  0  0  0  0  0  0  0  0  0  0  0  0  0  0  0  0  0  0  0  0
 ITRead=  0  0  0  0  0  0  0  0  0  0  0  0  0  0  0  0  0  0  0  0
 ITRead=  0  0  0  0  0  0  0  0  0  0  0
 MicOpt= -1 -1 -1 -1 -1 -1 -1 -1 -1 -1 -1 -1 -1 -1 -1 -1 -1 -1 -1 -1
 MicOpt= -1 -1 -1 -1 -1 -1 -1 -1 -1 -1 -1 -1 -1 -1 -1 -1 -1 -1 -1 -1
 MicOpt= -1 -1 -1 -1 -1 -1 -1 -1 -1 -1 -1
 NAtoms=     51 NQM=       51 NQMF=       0 NMMI=      0 NMMIF=      0
                NMic=       0 NMicF=      0.
                    Isotopes and Nuclear Properties:
 (Nuclear quadrupole moments (NQMom) in fm**2, nuclear magnetic moments (NMagM)
  in nuclear magnetons)

  Atom         1           2           3           4           5           6           7           8           9          10
 IAtWgt=          12          12          12          12          12          12          12           1           1           1
 AtmWgt=  12.0000000  12.0000000  12.0000000  12.0000000  12.0000000  12.0000000  12.0000000   1.0078250   1.0078250   1.0078250
 NucSpn=           0           0           0           0           0           0           0           1           1           1
 AtZEff=  -0.0000000  -0.0000000  -0.0000000  -0.0000000  -0.0000000  -0.0000000  -0.0000000  -0.0000000  -0.0000000  -0.0000000
 NQMom=    0.0000000   0.0000000   0.0000000   0.0000000   0.0000000   0.0000000   0.0000000   0.0000000   0.0000000   0.0000000
 NMagM=    0.0000000   0.0000000   0.0000000   0.0000000   0.0000000   0.0000000   0.0000000   2.7928460   2.7928460   2.7928460
 AtZNuc=   6.0000000   6.0000000   6.0000000   6.0000000   6.0000000   6.0000000   6.0000000   1.0000000   1.0000000   1.0000000

  Atom        11          12          13          14          15          16          17          18          19          20
 IAtWgt=          14          12          12          12          12          12          12           1           1          12
 AtmWgt=  14.0030740  12.0000000  12.0000000  12.0000000  12.0000000  12.0000000  12.0000000   1.0078250   1.0078250  12.0000000
 NucSpn=           2           0           0           0           0           0           0           1           1           0
 AtZEff=  -0.0000000  -0.0000000  -0.0000000  -0.0000000  -0.0000000  -0.0000000  -0.0000000  -0.0000000  -0.0000000  -0.0000000
 NQMom=    2.0440000   0.0000000   0.0000000   0.0000000   0.0000000   0.0000000   0.0000000   0.0000000   0.0000000   0.0000000
 NMagM=    0.4037610   0.0000000   0.0000000   0.0000000   0.0000000   0.0000000   0.0000000   2.7928460   2.7928460   0.0000000
 AtZNuc=   7.0000000   6.0000000   6.0000000   6.0000000   6.0000000   6.0000000   6.0000000   1.0000000   1.0000000   6.0000000

  Atom        21          22          23          24          25          26          27          28          29          30
 IAtWgt=           1           1           1          12           1           1           1          16          14          12
 AtmWgt=   1.0078250   1.0078250   1.0078250  12.0000000   1.0078250   1.0078250   1.0078250  15.9949146  14.0030740  12.0000000
 NucSpn=           1           1           1           0           1           1           1           0           2           0
 AtZEff=  -0.0000000  -0.0000000  -0.0000000  -0.0000000  -0.0000000  -0.0000000  -0.0000000  -0.0000000  -0.0000000  -0.0000000
 NQMom=    0.0000000   0.0000000   0.0000000   0.0000000   0.0000000   0.0000000   0.0000000   0.0000000   2.0440000   0.0000000
 NMagM=    2.7928460   2.7928460   2.7928460   0.0000000   2.7928460   2.7928460   2.7928460   0.0000000   0.4037610   0.0000000
 AtZNuc=   1.0000000   1.0000000   1.0000000   6.0000000   1.0000000   1.0000000   1.0000000   8.0000000   7.0000000   6.0000000

  Atom        31          32          33          34          35          36          37          38          39          40
 IAtWgt=           1          14          12          12          12           1          12           1           1          12
 AtmWgt=   1.0078250  14.0030740  12.0000000  12.0000000  12.0000000   1.0078250  12.0000000   1.0078250   1.0078250  12.0000000
 NucSpn=           1           2           0           0           0           1           0           1           1           0
 AtZEff=  -0.0000000  -0.0000000  -0.0000000  -0.0000000  -0.0000000  -0.0000000  -0.0000000  -0.0000000  -0.0000000  -0.0000000
 NQMom=    0.0000000   2.0440000   0.0000000   0.0000000   0.0000000   0.0000000   0.0000000   0.0000000   0.0000000   0.0000000
 NMagM=    2.7928460   0.4037610   0.0000000   0.0000000   0.0000000   2.7928460   0.0000000   2.7928460   2.7928460   0.0000000
 AtZNuc=   1.0000000   7.0000000   6.0000000   6.0000000   6.0000000   1.0000000   6.0000000   1.0000000   1.0000000   6.0000000

  Atom        41          42          43          44          45          46          47          48          49          50
 IAtWgt=           1           1          12           1           1           1           1           1           1           1
 AtmWgt=   1.0078250   1.0078250  12.0000000   1.0078250   1.0078250   1.0078250   1.0078250   1.0078250   1.0078250   1.0078250
 NucSpn=           1           1           0           1           1           1           1           1           1           1
 AtZEff=  -0.0000000  -0.0000000  -0.0000000  -0.0000000  -0.0000000  -0.0000000  -0.0000000  -0.0000000  -0.0000000  -0.0000000
 NQMom=    0.0000000   0.0000000   0.0000000   0.0000000   0.0000000   0.0000000   0.0000000   0.0000000   0.0000000   0.0000000
 NMagM=    2.7928460   2.7928460   0.0000000   2.7928460   2.7928460   2.7928460   2.7928460   2.7928460   2.7928460   2.7928460
 AtZNuc=   1.0000000   1.0000000   6.0000000   1.0000000   1.0000000   1.0000000   1.0000000   1.0000000   1.0000000   1.0000000

  Atom        51
 IAtWgt=           1
 AtmWgt=   1.0078250
 NucSpn=           1
 AtZEff=  -0.0000000
 NQMom=    0.0000000
 NMagM=    2.7928460
 AtZNuc=   1.0000000
 Leave Link  101 at Mon Dec 17 12:55:16 2018, MaxMem=  1342177280 cpu:               3.1 elap:               0.2
 (Enter /gpfs/apps/hpc/Apps/Restricted/Gaussian/Rev_A.03/g16/l103.exe)

 GradGradGradGradGradGradGradGradGradGradGradGradGradGradGradGradGradGrad
 Berny optimization.
 Initialization pass.
                           ----------------------------
                           !    Initial Parameters    !
                           ! (Angstroms and Degrees)  !
 --------------------------                            --------------------------
 ! Name  Definition              Value          Derivative Info.                !
 --------------------------------------------------------------------------------
 ! R1    R(1,2)                  1.4444         calculate D2E/DX2 analytically  !
 ! R2    R(1,6)                  1.4233         calculate D2E/DX2 analytically  !
 ! R3    R(1,29)                 1.3474         calculate D2E/DX2 analytically  !
 ! R4    R(2,3)                  1.4051         calculate D2E/DX2 analytically  !
 ! R5    R(2,11)                 1.3549         calculate D2E/DX2 analytically  !
 ! R6    R(3,4)                  1.3896         calculate D2E/DX2 analytically  !
 ! R7    R(3,8)                  1.0831         calculate D2E/DX2 analytically  !
 ! R8    R(4,5)                  1.4108         calculate D2E/DX2 analytically  !
 ! R9    R(4,9)                  1.0828         calculate D2E/DX2 analytically  !
 ! R10   R(5,6)                  1.3994         calculate D2E/DX2 analytically  !
 ! R11   R(5,10)                 1.0837         calculate D2E/DX2 analytically  !
 ! R12   R(6,30)                 1.428          calculate D2E/DX2 analytically  !
 ! R13   R(7,11)                 1.3643         calculate D2E/DX2 analytically  !
 ! R14   R(7,13)                 1.4231         calculate D2E/DX2 analytically  !
 ! R15   R(7,29)                 1.3704         calculate D2E/DX2 analytically  !
 ! R16   R(12,13)                1.4406         calculate D2E/DX2 analytically  !
 ! R17   R(12,17)                1.4261         calculate D2E/DX2 analytically  !
 ! R18   R(12,28)                1.3114         calculate D2E/DX2 analytically  !
 ! R19   R(13,14)                1.398          calculate D2E/DX2 analytically  !
 ! R20   R(14,15)                1.3896         calculate D2E/DX2 analytically  !
 ! R21   R(14,18)                1.0828         calculate D2E/DX2 analytically  !
 ! R22   R(15,16)                1.4308         calculate D2E/DX2 analytically  !
 ! R23   R(15,20)                1.4993         calculate D2E/DX2 analytically  !
 ! R24   R(16,17)                1.3762         calculate D2E/DX2 analytically  !
 ! R25   R(16,19)                1.0846         calculate D2E/DX2 analytically  !
 ! R26   R(17,24)                1.4992         calculate D2E/DX2 analytically  !
 ! R27   R(20,21)                1.0932         calculate D2E/DX2 analytically  !
 ! R28   R(20,22)                1.0951         calculate D2E/DX2 analytically  !
 ! R29   R(20,23)                1.0901         calculate D2E/DX2 analytically  !
 ! R30   R(24,25)                1.0934         calculate D2E/DX2 analytically  !
 ! R31   R(24,26)                1.0937         calculate D2E/DX2 analytically  !
 ! R32   R(24,27)                1.0898         calculate D2E/DX2 analytically  !
 ! R33   R(28,51)                1.0352         calculate D2E/DX2 analytically  !
 ! R34   R(30,31)                1.0845         calculate D2E/DX2 analytically  !
 ! R35   R(30,32)                1.2994         calculate D2E/DX2 analytically  !
 ! R36   R(32,33)                1.4757         calculate D2E/DX2 analytically  !
 ! R37   R(32,50)                1.028          calculate D2E/DX2 analytically  !
 ! R38   R(33,34)                1.535          calculate D2E/DX2 analytically  !
 ! R39   R(33,35)                1.5338         calculate D2E/DX2 analytically  !
 ! R40   R(33,36)                1.0918         calculate D2E/DX2 analytically  !
 ! R41   R(34,37)                1.5333         calculate D2E/DX2 analytically  !
 ! R42   R(34,38)                1.0961         calculate D2E/DX2 analytically  !
 ! R43   R(34,39)                1.0929         calculate D2E/DX2 analytically  !
 ! R44   R(35,40)                1.533          calculate D2E/DX2 analytically  !
 ! R45   R(35,41)                1.0962         calculate D2E/DX2 analytically  !
 ! R46   R(35,42)                1.093          calculate D2E/DX2 analytically  !
 ! R47   R(37,43)                1.5323         calculate D2E/DX2 analytically  !
 ! R48   R(37,44)                1.0934         calculate D2E/DX2 analytically  !
 ! R49   R(37,45)                1.0968         calculate D2E/DX2 analytically  !
 ! R50   R(40,43)                1.5331         calculate D2E/DX2 analytically  !
 ! R51   R(40,46)                1.0935         calculate D2E/DX2 analytically  !
 ! R52   R(40,47)                1.0966         calculate D2E/DX2 analytically  !
 ! R53   R(43,48)                1.0939         calculate D2E/DX2 analytically  !
 ! R54   R(43,49)                1.0971         calculate D2E/DX2 analytically  !
 ! A1    A(2,1,6)              120.2279         calculate D2E/DX2 analytically  !
 ! A2    A(2,1,29)             110.0821         calculate D2E/DX2 analytically  !
 ! A3    A(6,1,29)             129.6894         calculate D2E/DX2 analytically  !
 ! A4    A(1,2,3)              120.8267         calculate D2E/DX2 analytically  !
 ! A5    A(1,2,11)             107.445          calculate D2E/DX2 analytically  !
 ! A6    A(3,2,11)             131.7279         calculate D2E/DX2 analytically  !
 ! A7    A(2,3,4)              117.9745         calculate D2E/DX2 analytically  !
 ! A8    A(2,3,8)              120.8569         calculate D2E/DX2 analytically  !
 ! A9    A(4,3,8)              121.1685         calculate D2E/DX2 analytically  !
 ! A10   A(3,4,5)              121.8358         calculate D2E/DX2 analytically  !
 ! A11   A(3,4,9)              119.4763         calculate D2E/DX2 analytically  !
 ! A12   A(5,4,9)              118.6879         calculate D2E/DX2 analytically  !
 ! A13   A(4,5,6)              121.7923         calculate D2E/DX2 analytically  !
 ! A14   A(4,5,10)             119.2285         calculate D2E/DX2 analytically  !
 ! A15   A(6,5,10)             118.9791         calculate D2E/DX2 analytically  !
 ! A16   A(1,6,5)              117.3405         calculate D2E/DX2 analytically  !
 ! A17   A(1,6,30)             121.9837         calculate D2E/DX2 analytically  !
 ! A18   A(5,6,30)             120.6727         calculate D2E/DX2 analytically  !
 ! A19   A(11,7,13)            118.8259         calculate D2E/DX2 analytically  !
 ! A20   A(11,7,29)            115.5414         calculate D2E/DX2 analytically  !
 ! A21   A(13,7,29)            125.6326         calculate D2E/DX2 analytically  !
 ! A22   A(2,11,7)             104.1944         calculate D2E/DX2 analytically  !
 ! A23   A(13,12,17)           120.7159         calculate D2E/DX2 analytically  !
 ! A24   A(13,12,28)           119.9985         calculate D2E/DX2 analytically  !
 ! A25   A(17,12,28)           119.2853         calculate D2E/DX2 analytically  !
 ! A26   A(7,13,12)            116.4598         calculate D2E/DX2 analytically  !
 ! A27   A(7,13,14)            124.1684         calculate D2E/DX2 analytically  !
 ! A28   A(12,13,14)           119.3713         calculate D2E/DX2 analytically  !
 ! A29   A(13,14,15)           120.5381         calculate D2E/DX2 analytically  !
 ! A30   A(13,14,18)           118.6495         calculate D2E/DX2 analytically  !
 ! A31   A(15,14,18)           120.8124         calculate D2E/DX2 analytically  !
 ! A32   A(14,15,16)           119.0295         calculate D2E/DX2 analytically  !
 ! A33   A(14,15,20)           121.1444         calculate D2E/DX2 analytically  !
 ! A34   A(16,15,20)           119.8253         calculate D2E/DX2 analytically  !
 ! A35   A(15,16,17)           122.9728         calculate D2E/DX2 analytically  !
 ! A36   A(15,16,19)           118.0598         calculate D2E/DX2 analytically  !
 ! A37   A(17,16,19)           118.9673         calculate D2E/DX2 analytically  !
 ! A38   A(12,17,16)           117.3666         calculate D2E/DX2 analytically  !
 ! A39   A(12,17,24)           119.2726         calculate D2E/DX2 analytically  !
 ! A40   A(16,17,24)           123.3578         calculate D2E/DX2 analytically  !
 ! A41   A(15,20,21)           110.9814         calculate D2E/DX2 analytically  !
 ! A42   A(15,20,22)           110.4566         calculate D2E/DX2 analytically  !
 ! A43   A(15,20,23)           111.3565         calculate D2E/DX2 analytically  !
 ! A44   A(21,20,22)           106.8488         calculate D2E/DX2 analytically  !
 ! A45   A(21,20,23)           108.8881         calculate D2E/DX2 analytically  !
 ! A46   A(22,20,23)           108.1591         calculate D2E/DX2 analytically  !
 ! A47   A(17,24,25)           111.021          calculate D2E/DX2 analytically  !
 ! A48   A(17,24,26)           110.7941         calculate D2E/DX2 analytically  !
 ! A49   A(17,24,27)           110.5158         calculate D2E/DX2 analytically  !
 ! A50   A(25,24,26)           106.8814         calculate D2E/DX2 analytically  !
 ! A51   A(25,24,27)           108.7802         calculate D2E/DX2 analytically  !
 ! A52   A(26,24,27)           108.7398         calculate D2E/DX2 analytically  !
 ! A53   A(12,28,51)           107.3947         calculate D2E/DX2 analytically  !
 ! A54   A(1,29,7)             102.7371         calculate D2E/DX2 analytically  !
 ! A55   A(6,30,31)            119.291          calculate D2E/DX2 analytically  !
 ! A56   A(6,30,32)            122.7873         calculate D2E/DX2 analytically  !
 ! A57   A(31,30,32)           117.9204         calculate D2E/DX2 analytically  !
 ! A58   A(30,32,33)           124.9532         calculate D2E/DX2 analytically  !
 ! A59   A(30,32,50)           116.0683         calculate D2E/DX2 analytically  !
 ! A60   A(33,32,50)           118.9757         calculate D2E/DX2 analytically  !
 ! A61   A(32,33,34)           111.1597         calculate D2E/DX2 analytically  !
 ! A62   A(32,33,35)           111.3011         calculate D2E/DX2 analytically  !
 ! A63   A(32,33,36)           104.818          calculate D2E/DX2 analytically  !
 ! A64   A(34,33,35)           111.3356         calculate D2E/DX2 analytically  !
 ! A65   A(34,33,36)           108.8851         calculate D2E/DX2 analytically  !
 ! A66   A(35,33,36)           109.0932         calculate D2E/DX2 analytically  !
 ! A67   A(33,34,37)           110.0769         calculate D2E/DX2 analytically  !
 ! A68   A(33,34,38)           108.7196         calculate D2E/DX2 analytically  !
 ! A69   A(33,34,39)           109.7386         calculate D2E/DX2 analytically  !
 ! A70   A(37,34,38)           109.8394         calculate D2E/DX2 analytically  !
 ! A71   A(37,34,39)           110.8733         calculate D2E/DX2 analytically  !
 ! A72   A(38,34,39)           107.5322         calculate D2E/DX2 analytically  !
 ! A73   A(33,35,40)           110.2706         calculate D2E/DX2 analytically  !
 ! A74   A(33,35,41)           108.9791         calculate D2E/DX2 analytically  !
 ! A75   A(33,35,42)           109.6554         calculate D2E/DX2 analytically  !
 ! A76   A(40,35,41)           109.1551         calculate D2E/DX2 analytically  !
 ! A77   A(40,35,42)           111.2311         calculate D2E/DX2 analytically  !
 ! A78   A(41,35,42)           107.4793         calculate D2E/DX2 analytically  !
 ! A79   A(34,37,43)           111.5341         calculate D2E/DX2 analytically  !
 ! A80   A(34,37,44)           109.6431         calculate D2E/DX2 analytically  !
 ! A81   A(34,37,45)           108.8335         calculate D2E/DX2 analytically  !
 ! A82   A(43,37,44)           110.6815         calculate D2E/DX2 analytically  !
 ! A83   A(43,37,45)           109.2316         calculate D2E/DX2 analytically  !
 ! A84   A(44,37,45)           106.7827         calculate D2E/DX2 analytically  !
 ! A85   A(35,40,43)           111.3262         calculate D2E/DX2 analytically  !
 ! A86   A(35,40,46)           109.3502         calculate D2E/DX2 analytically  !
 ! A87   A(35,40,47)           109.1432         calculate D2E/DX2 analytically  !
 ! A88   A(43,40,46)           110.6095         calculate D2E/DX2 analytically  !
 ! A89   A(43,40,47)           109.4058         calculate D2E/DX2 analytically  !
 ! A90   A(46,40,47)           106.8934         calculate D2E/DX2 analytically  !
 ! A91   A(37,43,40)           111.096          calculate D2E/DX2 analytically  !
 ! A92   A(37,43,48)           110.24           calculate D2E/DX2 analytically  !
 ! A93   A(37,43,49)           109.1977         calculate D2E/DX2 analytically  !
 ! A94   A(40,43,48)           110.1751         calculate D2E/DX2 analytically  !
 ! A95   A(40,43,49)           109.067          calculate D2E/DX2 analytically  !
 ! A96   A(48,43,49)           106.9622         calculate D2E/DX2 analytically  !
 ! D1    D(6,1,2,3)              0.5062         calculate D2E/DX2 analytically  !
 ! D2    D(6,1,2,11)          -179.6971         calculate D2E/DX2 analytically  !
 ! D3    D(29,1,2,3)          -179.7451         calculate D2E/DX2 analytically  !
 ! D4    D(29,1,2,11)            0.0516         calculate D2E/DX2 analytically  !
 ! D5    D(2,1,6,5)             -0.1298         calculate D2E/DX2 analytically  !
 ! D6    D(2,1,6,30)           179.237          calculate D2E/DX2 analytically  !
 ! D7    D(29,1,6,5)          -179.8232         calculate D2E/DX2 analytically  !
 ! D8    D(29,1,6,30)           -0.4564         calculate D2E/DX2 analytically  !
 ! D9    D(2,1,29,7)            -0.0648         calculate D2E/DX2 analytically  !
 ! D10   D(6,1,29,7)           179.6531         calculate D2E/DX2 analytically  !
 ! D11   D(1,2,3,4)             -0.5024         calculate D2E/DX2 analytically  !
 ! D12   D(1,2,3,8)            179.626          calculate D2E/DX2 analytically  !
 ! D13   D(11,2,3,4)           179.7575         calculate D2E/DX2 analytically  !
 ! D14   D(11,2,3,8)            -0.1142         calculate D2E/DX2 analytically  !
 ! D15   D(1,2,11,7)            -0.0129         calculate D2E/DX2 analytically  !
 ! D16   D(3,2,11,7)           179.7532         calculate D2E/DX2 analytically  !
 ! D17   D(2,3,4,5)              0.1421         calculate D2E/DX2 analytically  !
 ! D18   D(2,3,4,9)           -179.7545         calculate D2E/DX2 analytically  !
 ! D19   D(8,3,4,5)           -179.9867         calculate D2E/DX2 analytically  !
 ! D20   D(8,3,4,9)              0.1167         calculate D2E/DX2 analytically  !
 ! D21   D(3,4,5,6)              0.2338         calculate D2E/DX2 analytically  !
 ! D22   D(3,4,5,10)          -179.6554         calculate D2E/DX2 analytically  !
 ! D23   D(9,4,5,6)           -179.8689         calculate D2E/DX2 analytically  !
 ! D24   D(9,4,5,10)             0.242          calculate D2E/DX2 analytically  !
 ! D25   D(4,5,6,1)             -0.2312         calculate D2E/DX2 analytically  !
 ! D26   D(4,5,6,30)          -179.6067         calculate D2E/DX2 analytically  !
 ! D27   D(10,5,6,1)           179.6582         calculate D2E/DX2 analytically  !
 ! D28   D(10,5,6,30)            0.2827         calculate D2E/DX2 analytically  !
 ! D29   D(1,6,30,31)         -179.0308         calculate D2E/DX2 analytically  !
 ! D30   D(1,6,30,32)            0.5411         calculate D2E/DX2 analytically  !
 ! D31   D(5,6,30,31)            0.3152         calculate D2E/DX2 analytically  !
 ! D32   D(5,6,30,32)          179.8871         calculate D2E/DX2 analytically  !
 ! D33   D(13,7,11,2)         -179.9346         calculate D2E/DX2 analytically  !
 ! D34   D(29,7,11,2)           -0.0299         calculate D2E/DX2 analytically  !
 ! D35   D(11,7,13,12)          -0.5465         calculate D2E/DX2 analytically  !
 ! D36   D(11,7,13,14)         179.2228         calculate D2E/DX2 analytically  !
 ! D37   D(29,7,13,12)         179.5594         calculate D2E/DX2 analytically  !
 ! D38   D(29,7,13,14)          -0.6714         calculate D2E/DX2 analytically  !
 ! D39   D(11,7,29,1)            0.0607         calculate D2E/DX2 analytically  !
 ! D40   D(13,7,29,1)          179.9579         calculate D2E/DX2 analytically  !
 ! D41   D(17,12,13,7)        -179.3425         calculate D2E/DX2 analytically  !
 ! D42   D(17,12,13,14)          0.8766         calculate D2E/DX2 analytically  !
 ! D43   D(28,12,13,7)           0.8449         calculate D2E/DX2 analytically  !
 ! D44   D(28,12,13,14)       -178.936          calculate D2E/DX2 analytically  !
 ! D45   D(13,12,17,16)         -0.6623         calculate D2E/DX2 analytically  !
 ! D46   D(13,12,17,24)        179.9416         calculate D2E/DX2 analytically  !
 ! D47   D(28,12,17,16)        179.1517         calculate D2E/DX2 analytically  !
 ! D48   D(28,12,17,24)         -0.2444         calculate D2E/DX2 analytically  !
 ! D49   D(13,12,28,51)         -0.6748         calculate D2E/DX2 analytically  !
 ! D50   D(17,12,28,51)        179.5099         calculate D2E/DX2 analytically  !
 ! D51   D(7,13,14,15)         179.8172         calculate D2E/DX2 analytically  !
 ! D52   D(7,13,14,18)          -0.1334         calculate D2E/DX2 analytically  !
 ! D53   D(12,13,14,15)         -0.4198         calculate D2E/DX2 analytically  !
 ! D54   D(12,13,14,18)        179.6295         calculate D2E/DX2 analytically  !
 ! D55   D(13,14,15,16)         -0.2151         calculate D2E/DX2 analytically  !
 ! D56   D(13,14,15,20)       -179.8942         calculate D2E/DX2 analytically  !
 ! D57   D(18,14,15,16)        179.7345         calculate D2E/DX2 analytically  !
 ! D58   D(18,14,15,20)          0.0554         calculate D2E/DX2 analytically  !
 ! D59   D(14,15,16,17)          0.4345         calculate D2E/DX2 analytically  !
 ! D60   D(14,15,16,19)       -179.5952         calculate D2E/DX2 analytically  !
 ! D61   D(20,15,16,17)       -179.8821         calculate D2E/DX2 analytically  !
 ! D62   D(20,15,16,19)          0.0882         calculate D2E/DX2 analytically  !
 ! D63   D(14,15,20,21)        -51.2436         calculate D2E/DX2 analytically  !
 ! D64   D(14,15,20,22)         67.075          calculate D2E/DX2 analytically  !
 ! D65   D(14,15,20,23)       -172.7252         calculate D2E/DX2 analytically  !
 ! D66   D(16,15,20,21)        129.0799         calculate D2E/DX2 analytically  !
 ! D67   D(16,15,20,22)       -112.6016         calculate D2E/DX2 analytically  !
 ! D68   D(16,15,20,23)          7.5982         calculate D2E/DX2 analytically  !
 ! D69   D(15,16,17,12)          0.0111         calculate D2E/DX2 analytically  !
 ! D70   D(15,16,17,24)        179.3804         calculate D2E/DX2 analytically  !
 ! D71   D(19,16,17,12)       -179.959          calculate D2E/DX2 analytically  !
 ! D72   D(19,16,17,24)         -0.5897         calculate D2E/DX2 analytically  !
 ! D73   D(12,17,24,25)        -57.5547         calculate D2E/DX2 analytically  !
 ! D74   D(12,17,24,26)         61.046          calculate D2E/DX2 analytically  !
 ! D75   D(12,17,24,27)       -178.3549         calculate D2E/DX2 analytically  !
 ! D76   D(16,17,24,25)        123.0874         calculate D2E/DX2 analytically  !
 ! D77   D(16,17,24,26)       -118.3119         calculate D2E/DX2 analytically  !
 ! D78   D(16,17,24,27)          2.2873         calculate D2E/DX2 analytically  !
 ! D79   D(6,30,32,33)        -178.891          calculate D2E/DX2 analytically  !
 ! D80   D(6,30,32,50)           0.4869         calculate D2E/DX2 analytically  !
 ! D81   D(31,30,32,33)          0.6865         calculate D2E/DX2 analytically  !
 ! D82   D(31,30,32,50)       -179.9356         calculate D2E/DX2 analytically  !
 ! D83   D(30,32,33,34)        -68.8763         calculate D2E/DX2 analytically  !
 ! D84   D(30,32,33,35)         55.8501         calculate D2E/DX2 analytically  !
 ! D85   D(30,32,33,36)        173.6456         calculate D2E/DX2 analytically  !
 ! D86   D(50,32,33,34)        111.7625         calculate D2E/DX2 analytically  !
 ! D87   D(50,32,33,35)       -123.5111         calculate D2E/DX2 analytically  !
 ! D88   D(50,32,33,36)         -5.7156         calculate D2E/DX2 analytically  !
 ! D89   D(32,33,34,37)       -178.1834         calculate D2E/DX2 analytically  !
 ! D90   D(32,33,34,38)         61.4603         calculate D2E/DX2 analytically  !
 ! D91   D(32,33,34,39)        -55.8952         calculate D2E/DX2 analytically  !
 ! D92   D(35,33,34,37)         57.1096         calculate D2E/DX2 analytically  !
 ! D93   D(35,33,34,38)        -63.2467         calculate D2E/DX2 analytically  !
 ! D94   D(35,33,34,39)        179.3978         calculate D2E/DX2 analytically  !
 ! D95   D(36,33,34,37)        -63.2066         calculate D2E/DX2 analytically  !
 ! D96   D(36,33,34,38)        176.4371         calculate D2E/DX2 analytically  !
 ! D97   D(36,33,34,39)         59.0817         calculate D2E/DX2 analytically  !
 ! D98   D(32,33,35,40)        178.1152         calculate D2E/DX2 analytically  !
 ! D99   D(32,33,35,41)        -62.0885         calculate D2E/DX2 analytically  !
 ! D100  D(32,33,35,42)         55.3064         calculate D2E/DX2 analytically  !
 ! D101  D(34,33,35,40)        -57.2573         calculate D2E/DX2 analytically  !
 ! D102  D(34,33,35,41)         62.5391         calculate D2E/DX2 analytically  !
 ! D103  D(34,33,35,42)        179.9339         calculate D2E/DX2 analytically  !
 ! D104  D(36,33,35,40)         62.9362         calculate D2E/DX2 analytically  !
 ! D105  D(36,33,35,41)       -177.2675         calculate D2E/DX2 analytically  !
 ! D106  D(36,33,35,42)        -59.8727         calculate D2E/DX2 analytically  !
 ! D107  D(33,34,37,43)        -56.0077         calculate D2E/DX2 analytically  !
 ! D108  D(33,34,37,44)       -178.9626         calculate D2E/DX2 analytically  !
 ! D109  D(33,34,37,45)         64.5712         calculate D2E/DX2 analytically  !
 ! D110  D(38,34,37,43)         63.6706         calculate D2E/DX2 analytically  !
 ! D111  D(38,34,37,44)        -59.2843         calculate D2E/DX2 analytically  !
 ! D112  D(38,34,37,45)       -175.7505         calculate D2E/DX2 analytically  !
 ! D113  D(39,34,37,43)       -177.6227         calculate D2E/DX2 analytically  !
 ! D114  D(39,34,37,44)         59.4224         calculate D2E/DX2 analytically  !
 ! D115  D(39,34,37,45)        -57.0438         calculate D2E/DX2 analytically  !
 ! D116  D(33,35,40,43)         56.0722         calculate D2E/DX2 analytically  !
 ! D117  D(33,35,40,46)        178.5926         calculate D2E/DX2 analytically  !
 ! D118  D(33,35,40,47)        -64.797          calculate D2E/DX2 analytically  !
 ! D119  D(41,35,40,43)        -63.6176         calculate D2E/DX2 analytically  !
 ! D120  D(41,35,40,46)         58.9027         calculate D2E/DX2 analytically  !
 ! D121  D(41,35,40,47)        175.5131         calculate D2E/DX2 analytically  !
 ! D122  D(42,35,40,43)        177.9535         calculate D2E/DX2 analytically  !
 ! D123  D(42,35,40,46)        -59.5261         calculate D2E/DX2 analytically  !
 ! D124  D(42,35,40,47)         57.0843         calculate D2E/DX2 analytically  !
 ! D125  D(34,37,43,40)         55.4226         calculate D2E/DX2 analytically  !
 ! D126  D(34,37,43,48)        177.8508         calculate D2E/DX2 analytically  !
 ! D127  D(34,37,43,49)        -64.9145         calculate D2E/DX2 analytically  !
 ! D128  D(44,37,43,40)        177.7826         calculate D2E/DX2 analytically  !
 ! D129  D(44,37,43,48)        -59.7892         calculate D2E/DX2 analytically  !
 ! D130  D(44,37,43,49)         57.4455         calculate D2E/DX2 analytically  !
 ! D131  D(45,37,43,40)        -64.9229         calculate D2E/DX2 analytically  !
 ! D132  D(45,37,43,48)         57.5053         calculate D2E/DX2 analytically  !
 ! D133  D(45,37,43,49)        174.74           calculate D2E/DX2 analytically  !
 ! D134  D(35,40,43,37)        -55.3419         calculate D2E/DX2 analytically  !
 ! D135  D(35,40,43,48)       -177.8077         calculate D2E/DX2 analytically  !
 ! D136  D(35,40,43,49)         65.0726         calculate D2E/DX2 analytically  !
 ! D137  D(46,40,43,37)       -177.134          calculate D2E/DX2 analytically  !
 ! D138  D(46,40,43,48)         60.4002         calculate D2E/DX2 analytically  !
 ! D139  D(46,40,43,49)        -56.7195         calculate D2E/DX2 analytically  !
 ! D140  D(47,40,43,37)         65.3732         calculate D2E/DX2 analytically  !
 ! D141  D(47,40,43,48)        -57.0925         calculate D2E/DX2 analytically  !
 ! D142  D(47,40,43,49)       -174.2123         calculate D2E/DX2 analytically  !
 --------------------------------------------------------------------------------
 Trust Radius=3.00D-01 FncErr=5.00D-06 GrdErr=5.00D-06 EigMax=2.50D+02 EigMin=1.00D-04
 Number of steps in this run=    302 maximum allowed number of steps=    306.
 GradGradGradGradGradGradGradGradGradGradGradGradGradGradGradGradGradGrad

 Leave Link  103 at Mon Dec 17 12:55:16 2018, MaxMem=  1342177280 cpu:               0.3 elap:               0.0
 (Enter /gpfs/apps/hpc/Apps/Restricted/Gaussian/Rev_A.03/g16/l202.exe)
 Symmetry turned off by external request.
 Stoichiometry    C22H25N3O(1+,2)
 Framework group  C1[X(C22H25N3O)]
 Deg. of freedom   147
 Full point group                 C1      NOp   1
                          Input orientation:                          
 ---------------------------------------------------------------------
 Center     Atomic      Atomic             Coordinates (Angstroms)
 Number     Number       Type             X           Y           Z
 ---------------------------------------------------------------------
      1          6           0       -0.454249    2.584710    0.251880
      2          6           0       -1.890004    2.740075    0.224848
      3          6           0       -2.475022    4.015700    0.155185
      4          6           0       -1.630935    5.119092    0.124054
      5          6           0       -0.227073    4.983290    0.157437
      6          6           0        0.391084    3.729300    0.218876
      7          6           0       -1.356615    0.664218    0.325090
      8          1           0       -3.551480    4.132484    0.128826
      9          1           0       -2.055882    6.113757    0.074452
     10          1           0        0.391270    5.873029    0.136808
     11          7           0       -2.433728    1.499990    0.272857
     12          6           0       -2.954339   -1.171519    0.394779
     13          6           0       -1.579950   -0.740084    0.383435
     14          6           0       -0.560814   -1.696147    0.424397
     15          6           0       -0.865338   -3.050615    0.484398
     16          6           0       -2.238138   -3.453223    0.508378
     17          6           0       -3.282148   -2.557646    0.465911
     18          1           0        0.468089   -1.359131    0.409213
     19          1           0       -2.457857   -4.513965    0.562046
     20          6           0        0.216749   -4.087369    0.531216
     21          1           0        0.942113   -3.932660   -0.271952
     22          1           0        0.768956   -4.021889    1.474569
     23          1           0       -0.193740   -5.093716    0.446985
     24          6           0       -4.723333   -2.970454    0.477029
     25          1           0       -5.257571   -2.507214    1.310953
     26          1           0       -5.226209   -2.649662   -0.439751
     27          1           0       -4.809784   -4.053426    0.563221
     28          8           0       -3.919951   -0.286214    0.335659
     29          7           0       -0.131371    1.277999    0.313846
     30          6           0        1.814320    3.619934    0.260050
     31          1           0        2.416364    4.521957    0.248442
     32          7           0        2.430831    2.477678    0.319566
     33          6           0        3.895354    2.309960    0.387469
     34          6           0        4.561907    2.720819   -0.932770
     35          6           0        4.489611    3.077405    1.575148
     36          1           0        4.046996    1.239808    0.541864
     37          6           0        6.076165    2.494390   -0.850686
     38          1           0        4.353749    3.781154   -1.116898
     39          1           0        4.127280    2.151778   -1.758419
     40          6           0        6.003638    2.849312    1.650899
     41          1           0        4.293298    4.147686    1.442220
     42          1           0        3.995600    2.765256    2.498835
     43          6           0        6.692596    3.239231    0.338023
     44          1           0        6.545790    2.806429   -1.787512
     45          1           0        6.268172    1.419902   -0.742685
     46          1           0        6.415039    3.422375    2.486474
     47          1           0        6.197692    1.791249    1.863960
     48          1           0        7.765103    3.032824    0.398989
     49          1           0        6.582913    4.319775    0.182867
     50          1           0        1.832902    1.641520    0.327993
     51          1           0       -3.479658    0.649961    0.298631
 ---------------------------------------------------------------------
 Rotational constants (GHZ):           0.2924099           0.1041001           0.0792939
 Leave Link  202 at Mon Dec 17 12:55:16 2018, MaxMem=  1342177280 cpu:               0.3 elap:               0.0
 (Enter /gpfs/apps/hpc/Apps/Restricted/Gaussian/Rev_A.03/g16/l301.exe)
 Standard basis: 6-31G(d,p) (6D, 7F)
 Ernie: Thresh=  0.10000D-02 Tol=  0.10000D-05 Strict=F.
   515 basis functions,   903 primitive gaussians,   515 cartesian basis functions
    93 alpha electrons       92 beta electrons
       nuclear repulsion energy      2192.8048182848 Hartrees.
 IExCor=  402 DFT=T Ex+Corr=B3LYP ExCW=0 ScaHFX=  0.200000
 ScaDFX=  0.800000  0.720000  1.000000  0.810000 ScalE2=  1.000000  1.000000
 IRadAn=      5 IRanWt=     -1 IRanGd=            0 ICorTp=0 IEmpDi=141
 NAtoms=   51 NActive=   51 NUniq=   51 SFac= 1.00D+00 NAtFMM=   60 NAOKFM=F Big=F
 Integral buffers will be    131072 words long.
 Raffenetti 2 integral format.
 Two-electron integral symmetry is turned off.
 R6Disp:  Grimme-D3(BJ) Dispersion energy=       -0.1074102920 Hartrees.
 Nuclear repulsion after empirical dispersion term =     2192.6974079929 Hartrees.
 Force inversion solution in PCM.
 Using the following non-standard input for PCM:
 radii=bondi
 dis
 rep
 cav
 --- end of non-standard input.
 Force inversion solution in PCM.
 ------------------------------------------------------------------------------
 Polarizable Continuum Model (PCM)
 =================================
 Model                : C-PCM.
 Atomic radii         : Bondi.
 Polarization charges : Total charges.
 Charge compensation  : None.
 Solution method      : Matrix inversion.
 Cavity type          : Scaled VdW (van der Waals Surface) (Alpha=1.100).
 Cavity algorithm     : GePol (No added spheres)
                        Default sphere list used, NSphG=   51.
                        Lebedev-Laikov grids with approx.  5.0 points / Ang**2.
                        Smoothing algorithm: York/Karplus (Gamma=1.0000).
                        Polarization charges: spherical gaussians, with
                                              point-specific exponents (IZeta= 3).
                        Self-potential: point-specific (ISelfS= 7).
                        Self-field    : sphere-specific E.n sum rule (ISelfD= 2).
 1st derivatives      : Analytical E(r).r(x)/FMM algorithm (CHGder, D1EAlg=3).
                        Cavity 1st derivative terms included.
 2nd derivatives      : Analytical E(r).r(xy)/FMM algorithm (CHGder, D2EAlg=3).
                        Cavity 2nd derivative terms included.
 Solvent              : Dichloromethane, Eps=   8.930000 Eps(inf)=   2.028346
 ------------------------------------------------------------------------------
 GePol: Number of generator spheres                  =      51
 GePol: Total number of spheres                      =      51
 GePol: Number of exposed spheres                    =      51 (100.00%)
 GePol: Number of points                             =    3448
 GePol: Average weight of points                     =       0.12
 GePol: Minimum weight of points                     =   0.36D-11
 GePol: Maximum weight of points                     =    0.21770
 GePol: Number of points with low weight             =     224
 GePol: Fraction of low-weight points (<1% of avg)   =       6.50%
 GePol: Cavity surface area                          =    409.133 Ang**2
 GePol: Cavity volume                                =    386.473 Ang**3
 PCM non-electrostatic energy =         0.0147508623 Hartrees.
 Nuclear repulsion after PCM non-electrostatic terms =     2192.7121588552 Hartrees.
 Leave Link  301 at Mon Dec 17 12:55:16 2018, MaxMem=  1342177280 cpu:               2.5 elap:               0.2
 (Enter /gpfs/apps/hpc/Apps/Restricted/Gaussian/Rev_A.03/g16/l302.exe)
 NPDir=0 NMtPBC=     1 NCelOv=     1 NCel=       1 NClECP=     1 NCelD=      1
         NCelK=      1 NCelE2=     1 NClLst=     1 CellRange=     0.0.
 One-electron integrals computed using PRISM.
 NBasis=   515 RedAO= T EigKep=  3.22D-04  NBF=   515
 NBsUse=   515 1.00D-06 EigRej= -1.00D+00 NBFU=   515
 Precomputing XC quadrature grid using
 IXCGrd= 4 IRadAn=           5 IRanWt=          -1 IRanGd=           0 AccXCQ= 0.00D+00.
 Generated NRdTot=       0 NPtTot=           0 NUsed=           0 NTot=          32
 NSgBfM=   502   502   502   502   502 MxSgAt=    51 MxSgA2=    51.
 Leave Link  302 at Mon Dec 17 12:55:17 2018, MaxMem=  1342177280 cpu:              12.7 elap:               0.8
 (Enter /gpfs/apps/hpc/Apps/Restricted/Gaussian/Rev_A.03/g16/l303.exe)
 DipDrv:  MaxL=1.
 Leave Link  303 at Mon Dec 17 12:55:17 2018, MaxMem=  1342177280 cpu:               0.8 elap:               0.1
 (Enter /gpfs/apps/hpc/Apps/Restricted/Gaussian/Rev_A.03/g16/l401.exe)
 Initial guess from the checkpoint file:  "cyclohexyl-monoBIP-E1PT_rev.chk"
 B after Tr=     0.019221   -0.019494    0.001132
         Rot=    1.000000   -0.000015   -0.000036   -0.000629 Ang=  -0.07 deg.
 Guess basis will be translated and rotated to current coordinates.
 JPrj=2 DoOrth=T DoCkMO=T.
 Initial guess <Sx>= 0.0000 <Sy>= 0.0000 <Sz>= 0.5000 <S**2>= 0.7605 S= 0.5052
 Leave Link  401 at Mon Dec 17 12:55:18 2018, MaxMem=  1342177280 cpu:              20.0 elap:               1.3
 (Enter /gpfs/apps/hpc/Apps/Restricted/Gaussian/Rev_A.03/g16/l502.exe)
 Two-electron integral symmetry not used.
 UHF open shell SCF:
 Using DIIS extrapolation, IDIIS=  1040.
 NGot=  1342177280 LenX=  1341634262 LenY=  1341368522
 Requested convergence on RMS density matrix=1.00D-08 within 128 cycles.
 Requested convergence on MAX density matrix=1.00D-06.
 Requested convergence on             energy=1.00D-06.
 No special actions if energy rises.
 Fock matrices will be formed incrementally for  20 cycles.

 Cycle   1  Pass 1  IDiag  1:
 FoFJK:  IHMeth= 1 ICntrl=       0 DoSepK=F KAlg= 0 I1Cent=           0 FoldK=F
 IRaf= 600000000 NMat=       1 IRICut=       1 DoRegI=T DoRafI=F ISym2E= 0 IDoP0=0 IntGTp=1.
 FoFCou: FMM=F IPFlag=           0 FMFlag=      100000 FMFlg1=           0
         NFxFlg=           0 DoJE=F BraDBF=F KetDBF=F FulRan=T
         wScrn=  0.000000 ICntrl=         0 IOpCl=  1 I1Cent=           0 NGrid=           0
         NMat0=    1 NMatS0=      1 NMatT0=    0 NMatD0=    1 NMtDS0=    0 NMtDT0=    0
 Symmetry not used in FoFCou.
 Inv3:  Mode=1 IEnd=    35666112.
 Iteration    1 A*A^-1 deviation from unit magnitude is 9.10D-15 for   2038.
 Iteration    1 A*A^-1 deviation from orthogonality  is 2.62D-15 for   2020     63.
 Iteration    1 A^-1*A deviation from unit magnitude is 9.10D-15 for   2038.
 Iteration    1 A^-1*A deviation from orthogonality  is 2.22D-15 for   2674   2212.
 E= -1092.86615531429    
 DIIS: error= 5.02D-03 at cycle   1 NSaved=   1.
 NSaved= 1 IEnMin= 1 EnMin= -1092.86615531429     IErMin= 1 ErrMin= 5.02D-03
 ErrMax= 5.02D-03  0.00D+00 EMaxC= 1.00D-01 BMatC= 4.98D-02 BMatP= 4.98D-02
 IDIUse=3 WtCom= 9.50D-01 WtEn= 5.02D-02
 Coeff-Com:  0.100D+01
 Coeff-En:   0.100D+01
 Coeff:      0.100D+01
 Gap=     0.128 Goal=   None    Shift=    0.000
 Gap=     0.060 Goal=   None    Shift=    0.000
 GapD=    0.060 DampG=0.500 DampE=1.000 DampFc=0.5000 IDamp=-1.
 Damping current iteration by 5.00D-01
 RMSDP=3.93D-04 MaxDP=2.35D-02              OVMax= 3.24D-02

 Cycle   2  Pass 1  IDiag  1:
 RMSU=  1.97D-04    CP:  1.00D+00
 E= -1092.87496500566     Delta-E=       -0.008809691370 Rises=F Damp=T
 DIIS: error= 2.82D-03 at cycle   2 NSaved=   2.
 NSaved= 2 IEnMin= 2 EnMin= -1092.87496500566     IErMin= 2 ErrMin= 2.82D-03
 ErrMax= 2.82D-03  0.00D+00 EMaxC= 1.00D-01 BMatC= 1.40D-02 BMatP= 4.98D-02
 IDIUse=3 WtCom= 9.72D-01 WtEn= 2.82D-02
 Coeff-Com: -0.809D+00 0.181D+01
 Coeff-En:   0.000D+00 0.100D+01
 Coeff:     -0.786D+00 0.179D+01
 Gap=     0.127 Goal=   None    Shift=    0.000
 Gap=     0.060 Goal=   None    Shift=    0.000
 RMSDP=2.29D-04 MaxDP=1.54D-02 DE=-8.81D-03 OVMax= 2.60D-02

 Cycle   3  Pass 1  IDiag  1:
 RMSU=  1.66D-04    CP:  9.99D-01  1.80D+00
 E= -1092.88216434519     Delta-E=       -0.007199339530 Rises=F Damp=F
 DIIS: error= 3.41D-03 at cycle   3 NSaved=   3.
 NSaved= 3 IEnMin= 3 EnMin= -1092.88216434519     IErMin= 2 ErrMin= 2.82D-03
 ErrMax= 3.41D-03  0.00D+00 EMaxC= 1.00D-01 BMatC= 1.24D-02 BMatP= 1.40D-02
 IDIUse=3 WtCom= 9.66D-01 WtEn= 3.41D-02
 Coeff-Com: -0.656D+00 0.124D+01 0.415D+00
 Coeff-En:   0.000D+00 0.000D+00 0.100D+01
 Coeff:     -0.633D+00 0.120D+01 0.435D+00
 Gap=     0.127 Goal=   None    Shift=    0.000
 Gap=     0.060 Goal=   None    Shift=    0.000
 RMSDP=1.21D-04 MaxDP=1.42D-02 DE=-7.20D-03 OVMax= 2.54D-02

 Cycle   4  Pass 1  IDiag  1:
 RMSU=  3.52D-05    CP:  1.00D+00  2.03D+00  3.59D-01
 E= -1092.88470636574     Delta-E=       -0.002542020549 Rises=F Damp=F
 DIIS: error= 6.53D-04 at cycle   4 NSaved=   4.
 NSaved= 4 IEnMin= 4 EnMin= -1092.88470636574     IErMin= 4 ErrMin= 6.53D-04
 ErrMax= 6.53D-04  0.00D+00 EMaxC= 1.00D-01 BMatC= 3.39D-04 BMatP= 1.24D-02
 IDIUse=3 WtCom= 9.93D-01 WtEn= 6.53D-03
 Coeff-Com: -0.252D+00 0.468D+00 0.229D+00 0.555D+00
 Coeff-En:   0.000D+00 0.000D+00 0.000D+00 0.100D+01
 Coeff:     -0.251D+00 0.465D+00 0.228D+00 0.558D+00
 Gap=     0.127 Goal=   None    Shift=    0.000
 Gap=     0.060 Goal=   None    Shift=    0.000
 RMSDP=2.08D-05 MaxDP=2.03D-03 DE=-2.54D-03 OVMax= 2.75D-03

 Cycle   5  Pass 1  IDiag  1:
 RMSU=  1.57D-05    CP:  9.99D-01  2.02D+00  4.30D-01  8.08D-01
 E= -1092.88477467587     Delta-E=       -0.000068310125 Rises=F Damp=F
 DIIS: error= 1.61D-04 at cycle   5 NSaved=   5.
 NSaved= 5 IEnMin= 5 EnMin= -1092.88477467587     IErMin= 5 ErrMin= 1.61D-04
 ErrMax= 1.61D-04  0.00D+00 EMaxC= 1.00D-01 BMatC= 2.96D-05 BMatP= 3.39D-04
 IDIUse=3 WtCom= 9.98D-01 WtEn= 1.61D-03
 Coeff-Com: -0.749D-01 0.137D+00 0.943D-01 0.316D+00 0.528D+00
 Coeff-En:   0.000D+00 0.000D+00 0.000D+00 0.000D+00 0.100D+01
 Coeff:     -0.748D-01 0.136D+00 0.942D-01 0.316D+00 0.529D+00
 Gap=     0.127 Goal=   None    Shift=    0.000
 Gap=     0.060 Goal=   None    Shift=    0.000
 RMSDP=8.88D-06 MaxDP=9.08D-04 DE=-6.83D-05 OVMax= 2.94D-03

 Cycle   6  Pass 1  IDiag  1:
 RMSU=  6.91D-06    CP:  9.99D-01  2.02D+00  4.31D-01  9.54D-01  8.70D-01
 E= -1092.88478461391     Delta-E=       -0.000009938038 Rises=F Damp=F
 DIIS: error= 8.67D-05 at cycle   6 NSaved=   6.
 NSaved= 6 IEnMin= 6 EnMin= -1092.88478461391     IErMin= 6 ErrMin= 8.67D-05
 ErrMax= 8.67D-05  0.00D+00 EMaxC= 1.00D-01 BMatC= 5.33D-06 BMatP= 2.96D-05
 IDIUse=1 WtCom= 1.00D+00 WtEn= 0.00D+00
 Coeff-Com:  0.222D-01-0.422D-01-0.442D-02-0.163D-01 0.209D+00 0.832D+00
 Coeff:      0.222D-01-0.422D-01-0.442D-02-0.163D-01 0.209D+00 0.832D+00
 Gap=     0.127 Goal=   None    Shift=    0.000
 Gap=     0.060 Goal=   None    Shift=    0.000
 RMSDP=6.75D-06 MaxDP=6.14D-04 DE=-9.94D-06 OVMax= 3.50D-03

 Cycle   7  Pass 1  IDiag  1:
 RMSU=  3.51D-06    CP:  9.99D-01  2.03D+00  4.38D-01  1.05D+00  1.13D+00
                    CP:  1.30D+00
 E= -1092.88478901098     Delta-E=       -0.000004397071 Rises=F Damp=F
 DIIS: error= 4.33D-05 at cycle   7 NSaved=   7.
 NSaved= 7 IEnMin= 7 EnMin= -1092.88478901098     IErMin= 7 ErrMin= 4.33D-05
 ErrMax= 4.33D-05  0.00D+00 EMaxC= 1.00D-01 BMatC= 2.14D-06 BMatP= 5.33D-06
 IDIUse=1 WtCom= 1.00D+00 WtEn= 0.00D+00
 Coeff-Com:  0.421D-01-0.780D-01-0.352D-01-0.136D+00-0.425D-01 0.490D+00
 Coeff-Com:  0.760D+00
 Coeff:      0.421D-01-0.780D-01-0.352D-01-0.136D+00-0.425D-01 0.490D+00
 Coeff:      0.760D+00
 Gap=     0.127 Goal=   None    Shift=    0.000
 Gap=     0.060 Goal=   None    Shift=    0.000
 RMSDP=5.75D-06 MaxDP=4.24D-04 DE=-4.40D-06 OVMax= 3.04D-03

 Cycle   8  Pass 1  IDiag  1:
 RMSU=  1.87D-06    CP:  9.99D-01  2.03D+00  4.43D-01  1.13D+00  1.30D+00
                    CP:  1.78D+00  1.43D+00
 E= -1092.88479146225     Delta-E=       -0.000002451272 Rises=F Damp=F
 DIIS: error= 2.79D-05 at cycle   8 NSaved=   8.
 NSaved= 8 IEnMin= 8 EnMin= -1092.88479146225     IErMin= 8 ErrMin= 2.79D-05
 ErrMax= 2.79D-05  0.00D+00 EMaxC= 1.00D-01 BMatC= 4.83D-07 BMatP= 2.14D-06
 IDIUse=1 WtCom= 1.00D+00 WtEn= 0.00D+00
 Coeff-Com:  0.189D-02-0.295D-02-0.784D-02-0.467D-01-0.104D+00-0.240D+00
 Coeff-Com:  0.290D+00 0.111D+01
 Coeff:      0.189D-02-0.295D-02-0.784D-02-0.467D-01-0.104D+00-0.240D+00
 Coeff:      0.290D+00 0.111D+01
 Gap=     0.127 Goal=   None    Shift=    0.000
 Gap=     0.060 Goal=   None    Shift=    0.000
 RMSDP=5.35D-06 MaxDP=4.75D-04 DE=-2.45D-06 OVMax= 3.00D-03

 Cycle   9  Pass 1  IDiag  1:
 RMSU=  1.06D-06    CP:  9.99D-01  2.03D+00  4.46D-01  1.21D+00  1.46D+00
                    CP:  2.17D+00  2.12D+00  1.36D+00
 E= -1092.88479253662     Delta-E=       -0.000001074368 Rises=F Damp=F
 DIIS: error= 1.05D-05 at cycle   9 NSaved=   9.
 NSaved= 9 IEnMin= 9 EnMin= -1092.88479253662     IErMin= 9 ErrMin= 1.05D-05
 ErrMax= 1.05D-05  0.00D+00 EMaxC= 1.00D-01 BMatC= 1.98D-07 BMatP= 4.83D-07
 IDIUse=1 WtCom= 1.00D+00 WtEn= 0.00D+00
 Coeff-Com: -0.592D-02 0.113D-01 0.101D-02-0.396D-02-0.549D-01-0.239D+00
 Coeff-Com:  0.103D-01 0.673D+00 0.609D+00
 Coeff:     -0.592D-02 0.113D-01 0.101D-02-0.396D-02-0.549D-01-0.239D+00
 Coeff:      0.103D-01 0.673D+00 0.609D+00
 Gap=     0.127 Goal=   None    Shift=    0.000
 Gap=     0.060 Goal=   None    Shift=    0.000
 RMSDP=1.73D-06 MaxDP=1.58D-04 DE=-1.07D-06 OVMax= 8.52D-04

 Cycle  10  Pass 1  IDiag  1:
 RMSU=  5.50D-07    CP:  9.99D-01  2.03D+00  4.46D-01  1.23D+00  1.51D+00
                    CP:  2.30D+00  2.32D+00  1.58D+00  9.78D-01
 E= -1092.88479268841     Delta-E=       -0.000000151789 Rises=F Damp=F
 DIIS: error= 4.84D-06 at cycle  10 NSaved=  10.
 NSaved=10 IEnMin=10 EnMin= -1092.88479268841     IErMin=10 ErrMin= 4.84D-06
 ErrMax= 4.84D-06  0.00D+00 EMaxC= 1.00D-01 BMatC= 3.43D-08 BMatP= 1.98D-07
 IDIUse=1 WtCom= 1.00D+00 WtEn= 0.00D+00
 Coeff-Com: -0.343D-02 0.633D-02 0.315D-02 0.142D-01 0.126D-01-0.116D-01
 Coeff-Com: -0.944D-01-0.620D-01 0.282D+00 0.854D+00
 Coeff:     -0.343D-02 0.633D-02 0.315D-02 0.142D-01 0.126D-01-0.116D-01
 Coeff:     -0.944D-01-0.620D-01 0.282D+00 0.854D+00
 Gap=     0.127 Goal=   None    Shift=    0.000
 Gap=     0.060 Goal=   None    Shift=    0.000
 RMSDP=6.26D-07 MaxDP=7.05D-05 DE=-1.52D-07 OVMax= 3.09D-04

 Cycle  11  Pass 1  IDiag  1:
 RMSU=  2.45D-07    CP:  9.99D-01  2.03D+00  4.46D-01  1.23D+00  1.52D+00
                    CP:  2.33D+00  2.40D+00  1.69D+00  1.27D+00  1.23D+00
 E= -1092.88479272064     Delta-E=       -0.000000032236 Rises=F Damp=F
 DIIS: error= 2.75D-06 at cycle  11 NSaved=  11.
 NSaved=11 IEnMin=11 EnMin= -1092.88479272064     IErMin=11 ErrMin= 2.75D-06
 ErrMax= 2.75D-06  0.00D+00 EMaxC= 1.00D-01 BMatC= 6.60D-09 BMatP= 3.43D-08
 IDIUse=1 WtCom= 1.00D+00 WtEn= 0.00D+00
 Coeff-Com:  0.311D-03-0.660D-03 0.563D-03 0.546D-02 0.141D-01 0.456D-01
 Coeff-Com: -0.397D-01-0.164D+00-0.226D-01 0.278D+00 0.883D+00
 Coeff:      0.311D-03-0.660D-03 0.563D-03 0.546D-02 0.141D-01 0.456D-01
 Coeff:     -0.397D-01-0.164D+00-0.226D-01 0.278D+00 0.883D+00
 Gap=     0.127 Goal=   None    Shift=    0.000
 Gap=     0.060 Goal=   None    Shift=    0.000
 RMSDP=3.64D-07 MaxDP=4.13D-05 DE=-3.22D-08 OVMax= 1.35D-04

 Cycle  12  Pass 1  IDiag  1:
 RMSU=  1.40D-07    CP:  9.99D-01  2.03D+00  4.46D-01  1.24D+00  1.53D+00
                    CP:  2.35D+00  2.44D+00  1.73D+00  1.40D+00  1.52D+00
                    CP:  1.15D+00
 E= -1092.88479272859     Delta-E=       -0.000000007944 Rises=F Damp=F
 DIIS: error= 1.13D-06 at cycle  12 NSaved=  12.
 NSaved=12 IEnMin=12 EnMin= -1092.88479272859     IErMin=12 ErrMin= 1.13D-06
 ErrMax= 1.13D-06  0.00D+00 EMaxC= 1.00D-01 BMatC= 3.78D-09 BMatP= 6.60D-09
 IDIUse=1 WtCom= 1.00D+00 WtEn= 0.00D+00
 Coeff-Com:  0.125D-02-0.237D-02-0.543D-03-0.797D-03 0.569D-02 0.367D-01
 Coeff-Com:  0.739D-02-0.861D-01-0.109D+00-0.117D+00 0.572D+00 0.692D+00
 Coeff:      0.125D-02-0.237D-02-0.543D-03-0.797D-03 0.569D-02 0.367D-01
 Coeff:      0.739D-02-0.861D-01-0.109D+00-0.117D+00 0.572D+00 0.692D+00
 Gap=     0.127 Goal=   None    Shift=    0.000
 Gap=     0.060 Goal=   None    Shift=    0.000
 RMSDP=1.50D-07 MaxDP=1.55D-05 DE=-7.94D-09 OVMax= 4.10D-05

 Cycle  13  Pass 1  IDiag  1:
 RMSU=  6.35D-08    CP:  9.99D-01  2.03D+00  4.46D-01  1.24D+00  1.53D+00
                    CP:  2.35D+00  2.44D+00  1.75D+00  1.48D+00  1.64D+00
                    CP:  1.46D+00  8.71D-01
 E= -1092.88479273063     Delta-E=       -0.000000002039 Rises=F Damp=F
 DIIS: error= 5.47D-07 at cycle  13 NSaved=  13.
 NSaved=13 IEnMin=13 EnMin= -1092.88479273063     IErMin=13 ErrMin= 5.47D-07
 ErrMax= 5.47D-07  0.00D+00 EMaxC= 1.00D-01 BMatC= 3.75D-10 BMatP= 3.78D-09
 IDIUse=1 WtCom= 1.00D+00 WtEn= 0.00D+00
 Coeff-Com:  0.430D-03-0.801D-03-0.320D-03-0.130D-02-0.747D-03 0.505D-02
 Coeff-Com:  0.827D-02-0.415D-02-0.366D-01-0.838D-01 0.734D-01 0.268D+00
 Coeff-Com:  0.773D+00
 Coeff:      0.430D-03-0.801D-03-0.320D-03-0.130D-02-0.747D-03 0.505D-02
 Coeff:      0.827D-02-0.415D-02-0.366D-01-0.838D-01 0.734D-01 0.268D+00
 Coeff:      0.773D+00
 Gap=     0.127 Goal=   None    Shift=    0.000
 Gap=     0.060 Goal=   None    Shift=    0.000
 RMSDP=6.30D-08 MaxDP=5.89D-06 DE=-2.04D-09 OVMax= 2.30D-05

 Cycle  14  Pass 1  IDiag  1:
 RMSU=  2.72D-08    CP:  9.99D-01  2.03D+00  4.46D-01  1.24D+00  1.53D+00
                    CP:  2.35D+00  2.45D+00  1.75D+00  1.49D+00  1.67D+00
                    CP:  1.53D+00  1.04D+00  1.05D+00
 E= -1092.88479273089     Delta-E=       -0.000000000261 Rises=F Damp=F
 DIIS: error= 2.69D-07 at cycle  14 NSaved=  14.
 NSaved=14 IEnMin=14 EnMin= -1092.88479273089     IErMin=14 ErrMin= 2.69D-07
 ErrMax= 2.69D-07  0.00D+00 EMaxC= 1.00D-01 BMatC= 1.23D-10 BMatP= 3.75D-10
 IDIUse=1 WtCom= 1.00D+00 WtEn= 0.00D+00
 Coeff-Com: -0.102D-03 0.199D-03-0.129D-04-0.531D-03-0.187D-02-0.650D-02
 Coeff-Com:  0.285D-02 0.212D-01 0.690D-02-0.144D-01-0.114D+00-0.293D-01
 Coeff-Com:  0.422D+00 0.713D+00
 Coeff:     -0.102D-03 0.199D-03-0.129D-04-0.531D-03-0.187D-02-0.650D-02
 Coeff:      0.285D-02 0.212D-01 0.690D-02-0.144D-01-0.114D+00-0.293D-01
 Coeff:      0.422D+00 0.713D+00
 Gap=     0.127 Goal=   None    Shift=    0.000
 Gap=     0.060 Goal=   None    Shift=    0.000
 RMSDP=2.36D-08 MaxDP=2.87D-06 DE=-2.61D-10 OVMax= 6.08D-06

 Cycle  15  Pass 1  IDiag  1:
 RMSU=  1.23D-08    CP:  9.99D-01  2.03D+00  4.46D-01  1.24D+00  1.53D+00
                    CP:  2.35D+00  2.45D+00  1.75D+00  1.50D+00  1.68D+00
                    CP:  1.57D+00  1.08D+00  1.27D+00  9.21D-01
 E= -1092.88479273089     Delta-E=       -0.000000000003 Rises=F Damp=F
 DIIS: error= 1.06D-07 at cycle  15 NSaved=  15.
 NSaved=15 IEnMin=15 EnMin= -1092.88479273089     IErMin=15 ErrMin= 1.06D-07
 ErrMax= 1.06D-07  0.00D+00 EMaxC= 1.00D-01 BMatC= 2.33D-11 BMatP= 1.23D-10
 IDIUse=1 WtCom= 1.00D+00 WtEn= 0.00D+00
 Coeff-Com: -0.120D-03 0.229D-03 0.452D-04-0.509D-04-0.840D-03-0.421D-02
 Coeff-Com: -0.515D-03 0.113D-01 0.963D-02 0.990D-02-0.693D-01-0.616D-01
 Coeff-Com:  0.487D-01 0.335D+00 0.722D+00
 Coeff:     -0.120D-03 0.229D-03 0.452D-04-0.509D-04-0.840D-03-0.421D-02
 Coeff:     -0.515D-03 0.113D-01 0.963D-02 0.990D-02-0.693D-01-0.616D-01
 Coeff:      0.487D-01 0.335D+00 0.722D+00
 Gap=     0.127 Goal=   None    Shift=    0.000
 Gap=     0.060 Goal=   None    Shift=    0.000
 RMSDP=1.37D-08 MaxDP=1.43D-06 DE=-3.18D-12 OVMax= 5.10D-06

 Cycle  16  Pass 1  IDiag  1:
 RMSU=  6.01D-09    CP:  9.99D-01  2.03D+00  4.46D-01  1.24D+00  1.53D+00
                    CP:  2.35D+00  2.45D+00  1.75D+00  1.50D+00  1.69D+00
                    CP:  1.57D+00  1.11D+00  1.32D+00  1.07D+00  9.52D-01
 E= -1092.88479273093     Delta-E=       -0.000000000042 Rises=F Damp=F
 DIIS: error= 5.18D-08 at cycle  16 NSaved=  16.
 NSaved=16 IEnMin=16 EnMin= -1092.88479273093     IErMin=16 ErrMin= 5.18D-08
 ErrMax= 5.18D-08  0.00D+00 EMaxC= 1.00D-01 BMatC= 6.10D-12 BMatP= 2.33D-11
 IDIUse=1 WtCom= 1.00D+00 WtEn= 0.00D+00
 Coeff-Com: -0.482D-04 0.901D-04 0.334D-04 0.104D-03-0.152D-04-0.761D-03
 Coeff-Com: -0.103D-02 0.150D-02 0.366D-02 0.923D-02-0.135D-01-0.269D-01
 Coeff-Com: -0.673D-01 0.286D-01 0.423D+00 0.644D+00
 Coeff:     -0.482D-04 0.901D-04 0.334D-04 0.104D-03-0.152D-04-0.761D-03
 Coeff:     -0.103D-02 0.150D-02 0.366D-02 0.923D-02-0.135D-01-0.269D-01
 Coeff:     -0.673D-01 0.286D-01 0.423D+00 0.644D+00
 Gap=     0.127 Goal=   None    Shift=    0.000
 Gap=     0.060 Goal=   None    Shift=    0.000
 RMSDP=4.11D-09 MaxDP=6.45D-07 DE=-4.23D-11 OVMax= 1.06D-06

 Error on total polarization charges =  0.03841
 SCF Done:  E(UB3LYP) =  -1092.88479273     A.U. after   16 cycles
            NFock= 16  Conv=0.41D-08     -V/T= 2.0095
 <Sx>= 0.0000 <Sy>= 0.0000 <Sz>= 0.5000 <S**2>= 0.7616 S= 0.5058
 <L.S>= 0.000000000000E+00
 KE= 1.082633552653D+03 PE=-6.897743733810D+03 EE= 2.529513229570D+03
 Annihilation of the first spin contaminant:
 S**2 before annihilation     0.7616,   after     0.7501
 Leave Link  502 at Mon Dec 17 12:57:57 2018, MaxMem=  1342177280 cpu:            2483.4 elap:             158.3
 (Enter /gpfs/apps/hpc/Apps/Restricted/Gaussian/Rev_A.03/g16/l801.exe)
 DoSCS=F DFT=T ScalE2(SS,OS)=  1.000000  1.000000
 Range of M.O.s used for correlation:     1   515
 NBasis=   515 NAE=    93 NBE=    92 NFC=     0 NFV=     0
 NROrb=    515 NOA=    93 NOB=    92 NVA=   422 NVB=   423

 **** Warning!!: The smallest beta delta epsilon is  0.59771840D-01

 Leave Link  801 at Mon Dec 17 12:57:57 2018, MaxMem=  1342177280 cpu:               0.5 elap:               0.1
 (Enter /gpfs/apps/hpc/Apps/Restricted/Gaussian/Rev_A.03/g16/l1101.exe)
 Using compressed storage, NAtomX=    51.
 Will process     52 centers per pass.
 R6Disp: Adding Grimme-D3(BJ) dispersion energy 1st derivatives to the gradient.
 Leave Link 1101 at Mon Dec 17 12:57:58 2018, MaxMem=  1342177280 cpu:              17.3 elap:               1.1
 (Enter /gpfs/apps/hpc/Apps/Restricted/Gaussian/Rev_A.03/g16/l1102.exe)
 Symmetrizing basis deriv contribution to polar:
 IMax=3 JMax=2 DiffMx= 0.00D+00
 Leave Link 1102 at Mon Dec 17 12:57:58 2018, MaxMem=  1342177280 cpu:               1.0 elap:               0.1
 (Enter /gpfs/apps/hpc/Apps/Restricted/Gaussian/Rev_A.03/g16/l1110.exe)
 Forming Gx(P) for the SCF density, NAtomX=    51.
 Integral derivatives from FoFJK, PRISM(SPDF).
 Do as many integral derivatives as possible in FoFJK.
 G2DrvN: MDV=    1342173472.
 G2DrvN: will do    52 centers at a time, making    1 passes.
 Calling FoFCou, ICntrl=  3107 FMM=F I1Cent=   0 AccDes= 0.00D+00.
 FoFJK:  IHMeth= 1 ICntrl=    3107 DoSepK=F KAlg= 0 I1Cent=           0 FoldK=F
 IRaf=         0 NMat=       1 IRICut=       1 DoRegI=T DoRafI=F ISym2E= 0 IDoP0=0 IntGTp=1.
 FoFCou: FMM=F IPFlag=           0 FMFlag=      100000 FMFlg1=           0
         NFxFlg=           0 DoJE=F BraDBF=F KetDBF=F FulRan=T
         wScrn=  0.000000 ICntrl=      3107 IOpCl=  1 I1Cent=           0 NGrid=           0
         NMat0=    1 NMatS0=      1 NMatT0=    0 NMatD0=    1 NMtDS0=    0 NMtDT0=    0
 Symmetry not used in FoFCou.
 NEqPCM:  Using equilibrium solvation (IEInf=0, Eps=   8.9300, EpsInf=   2.0283)
 G2PCM: DoFxE=T DoFxN=T DoGrad=T DoDP/DQ/DG/TGxP=FFFF NFrqRd=   0 IEInf=0 SqF1=F DoCFld=F IF1Alg=4.
 GePol: Maximum number of non-zero 1st derivatives   =     219
 End of G2Drv F.D. properties file   721 does not exist.
 End of G2Drv F.D. properties file   722 does not exist.
 End of G2Drv F.D. properties file   788 does not exist.
 Leave Link 1110 at Mon Dec 17 13:05:38 2018, MaxMem=  1342177280 cpu:            7341.3 elap:             459.4
 (Enter /gpfs/apps/hpc/Apps/Restricted/Gaussian/Rev_A.03/g16/l1002.exe)
 Minotr:  UHF open shell wavefunction.
          IDoAtm=11111111111111111111111111111111111111111111111111
          IDoAtm=1
 NEqPCM:  Using equilibrium solvation (IEInf=0, Eps=   8.9300, EpsInf=   2.0283)
          Direct CPHF calculation.
          Differentiating once with respect to nuclear coordinates.
          Requested convergence is 1.0D-08 RMS, and 1.0D-07 maximum.
          Secondary convergence is 1.0D-12 RMS, and 1.0D-12 maximum.
          NewPWx=T KeepS1=F KeepF1=F KeepIn=T MapXYZ=F SortEE=F KeepMc=T.
        15521 words used for storage of precomputed grid.
 Two-electron integral symmetry not used.
          MDV=    1342177280 using IRadAn=       1.
          Solving linear equations simultaneously, MaxMat=     384.
 FoF2E skips out because all densities are zero.
 CalDSu exits because no D1Ps are significant.
 FoFJK:  IHMeth= 1 ICntrl=       0 DoSepK=F KAlg= 0 I1Cent=           0 FoldK=F
 IRaf= 560000000 NMat=      80 IRICut=     200 DoRegI=T DoRafI=T ISym2E= 0 IDoP0=0 IntGTp=1.
          There are   156 degrees of freedom in the 1st order CPHF.  IDoFFX=6 NUNeed=     0.
    150 vectors produced by pass  0 Test12= 7.82D-14 1.00D-09 XBig12= 5.30D-01 2.95D-01.
 AX will form    80 AO Fock derivatives at one time.
    150 vectors produced by pass  1 Test12= 7.82D-14 1.00D-09 XBig12= 1.67D-01 7.45D-02.
    150 vectors produced by pass  2 Test12= 7.82D-14 1.00D-09 XBig12= 1.93D-03 8.62D-03.
    150 vectors produced by pass  3 Test12= 7.82D-14 1.00D-09 XBig12= 1.69D-05 8.27D-04.
    150 vectors produced by pass  4 Test12= 7.82D-14 1.00D-09 XBig12= 8.86D-08 3.74D-05.
    136 vectors produced by pass  5 Test12= 7.82D-14 1.00D-09 XBig12= 3.60D-10 1.54D-06.
     77 vectors produced by pass  6 Test12= 7.82D-14 1.00D-09 XBig12= 1.47D-12 1.06D-07.
     19 vectors produced by pass  7 Test12= 7.82D-14 1.00D-09 XBig12= 4.93D-15 5.75D-09.
 InvSVY:  IOpt=1 It=  1 EMax= 7.77D-16
 Solved reduced A of dimension   982 with   156 vectors.
 End of Minotr F.D. properties file   721 does not exist.
 End of Minotr F.D. properties file   722 does not exist.
 End of Minotr F.D. properties file   788 does not exist.
 Leave Link 1002 at Mon Dec 17 13:21:52 2018, MaxMem=  1342177280 cpu:           15564.7 elap:             973.6
 (Enter /gpfs/apps/hpc/Apps/Restricted/Gaussian/Rev_A.03/g16/l601.exe)
 Copying SCF densities to generalized density rwf, IOpCl= 1 IROHF=0.

 **********************************************************************

            Population analysis using the SCF density.

 **********************************************************************

 Alpha  occ. eigenvalues --  -19.20156 -14.42682 -14.35863 -14.35468 -10.30487
 Alpha  occ. eigenvalues --  -10.29749 -10.27734 -10.24975 -10.24962 -10.24881
 Alpha  occ. eigenvalues --  -10.24546 -10.24197 -10.23541 -10.23334 -10.23074
 Alpha  occ. eigenvalues --  -10.22691 -10.22344 -10.22002 -10.21762 -10.19773
 Alpha  occ. eigenvalues --  -10.19747 -10.19746 -10.19515 -10.18903 -10.18883
 Alpha  occ. eigenvalues --  -10.18496  -1.10527  -1.02957  -1.00791  -0.89693
 Alpha  occ. eigenvalues --   -0.89384  -0.87809  -0.84691  -0.82137  -0.80765
 Alpha  occ. eigenvalues --   -0.79916  -0.75981  -0.75585  -0.75038  -0.71448
 Alpha  occ. eigenvalues --   -0.70419  -0.70106  -0.68211  -0.64419  -0.62889
 Alpha  occ. eigenvalues --   -0.62450  -0.61961  -0.60722  -0.59878  -0.57375
 Alpha  occ. eigenvalues --   -0.56686  -0.53660  -0.53498  -0.52884  -0.50961
 Alpha  occ. eigenvalues --   -0.50356  -0.49365  -0.48253  -0.47817  -0.47082
 Alpha  occ. eigenvalues --   -0.46205  -0.45559  -0.45452  -0.44858  -0.44742
 Alpha  occ. eigenvalues --   -0.43608  -0.43511  -0.43397  -0.43352  -0.41550
 Alpha  occ. eigenvalues --   -0.41454  -0.41042  -0.40563  -0.39704  -0.39292
 Alpha  occ. eigenvalues --   -0.39207  -0.38613  -0.37853  -0.36748  -0.36614
 Alpha  occ. eigenvalues --   -0.36165  -0.35566  -0.35235  -0.33187  -0.33028
 Alpha  occ. eigenvalues --   -0.32700  -0.31696  -0.30971  -0.30571  -0.30112
 Alpha  occ. eigenvalues --   -0.25870  -0.25581  -0.23420
 Alpha virt. eigenvalues --   -0.10704  -0.05744  -0.03075  -0.00776   0.01157
 Alpha virt. eigenvalues --    0.04974   0.06980   0.07818   0.08787   0.09538
 Alpha virt. eigenvalues --    0.09861   0.11333   0.12185   0.12296   0.12510
 Alpha virt. eigenvalues --    0.12551   0.13822   0.14442   0.14776   0.14966
 Alpha virt. eigenvalues --    0.15030   0.15283   0.16410   0.16643   0.16776
 Alpha virt. eigenvalues --    0.17094   0.17291   0.17598   0.17722   0.17859
 Alpha virt. eigenvalues --    0.18139   0.18958   0.19387   0.20054   0.21058
 Alpha virt. eigenvalues --    0.21276   0.22041   0.22986   0.23075   0.23466
 Alpha virt. eigenvalues --    0.23824   0.24640   0.25532   0.26030   0.26518
 Alpha virt. eigenvalues --    0.27797   0.28359   0.29035   0.29529   0.30925
 Alpha virt. eigenvalues --    0.32905   0.33063   0.34355   0.36693   0.37962
 Alpha virt. eigenvalues --    0.38479   0.41285   0.42330   0.43492   0.45796
 Alpha virt. eigenvalues --    0.46921   0.47473   0.47599   0.48130   0.49449
 Alpha virt. eigenvalues --    0.49823   0.50740   0.50900   0.51234   0.51474
 Alpha virt. eigenvalues --    0.52317   0.52435   0.52546   0.52846   0.53042
 Alpha virt. eigenvalues --    0.53624   0.54019   0.54624   0.55390   0.55676
 Alpha virt. eigenvalues --    0.56134   0.56300   0.57004   0.57398   0.58736
 Alpha virt. eigenvalues --    0.59156   0.59839   0.60364   0.60442   0.60958
 Alpha virt. eigenvalues --    0.61566   0.62938   0.63367   0.64255   0.64585
 Alpha virt. eigenvalues --    0.64990   0.65166   0.66478   0.66711   0.68081
 Alpha virt. eigenvalues --    0.68748   0.69792   0.70298   0.70737   0.71142
 Alpha virt. eigenvalues --    0.71577   0.74097   0.74424   0.74814   0.75013
 Alpha virt. eigenvalues --    0.75317   0.76029   0.76678   0.77617   0.78108
 Alpha virt. eigenvalues --    0.79671   0.79910   0.80335   0.80823   0.81179
 Alpha virt. eigenvalues --    0.81926   0.83153   0.83833   0.84015   0.84858
 Alpha virt. eigenvalues --    0.85143   0.86041   0.86276   0.86687   0.87289
 Alpha virt. eigenvalues --    0.87868   0.87975   0.88327   0.88844   0.89428
 Alpha virt. eigenvalues --    0.89617   0.89981   0.90803   0.91042   0.92595
 Alpha virt. eigenvalues --    0.93002   0.93306   0.93985   0.94194   0.95025
 Alpha virt. eigenvalues --    0.96062   0.96747   0.97682   0.98391   0.98676
 Alpha virt. eigenvalues --    1.00799   1.03387   1.05151   1.05936   1.07576
 Alpha virt. eigenvalues --    1.08427   1.08608   1.09314   1.10269   1.11512
 Alpha virt. eigenvalues --    1.13718   1.14482   1.15108   1.17657   1.18813
 Alpha virt. eigenvalues --    1.19657   1.20068   1.20818   1.22446   1.23083
 Alpha virt. eigenvalues --    1.24076   1.25747   1.26323   1.27135   1.27487
 Alpha virt. eigenvalues --    1.27920   1.28352   1.28762   1.29211   1.33217
 Alpha virt. eigenvalues --    1.33913   1.34057   1.35398   1.36678   1.36899
 Alpha virt. eigenvalues --    1.37684   1.38026   1.38299   1.39181   1.41152
 Alpha virt. eigenvalues --    1.42575   1.43188   1.45068   1.45419   1.46167
 Alpha virt. eigenvalues --    1.47921   1.49953   1.52199   1.53275   1.54396
 Alpha virt. eigenvalues --    1.58029   1.59538   1.60491   1.60824   1.61520
 Alpha virt. eigenvalues --    1.62815   1.65010   1.68077   1.68803   1.70096
 Alpha virt. eigenvalues --    1.70489   1.71029   1.71729   1.72036   1.74180
 Alpha virt. eigenvalues --    1.74769   1.75038   1.75120   1.76249   1.77784
 Alpha virt. eigenvalues --    1.78632   1.79146   1.79319   1.79455   1.81527
 Alpha virt. eigenvalues --    1.82433   1.83220   1.84161   1.84727   1.84879
 Alpha virt. eigenvalues --    1.85667   1.86187   1.87757   1.89105   1.90079
 Alpha virt. eigenvalues --    1.90573   1.90983   1.91243   1.91637   1.92832
 Alpha virt. eigenvalues --    1.93217   1.93539   1.94077   1.94911   1.96455
 Alpha virt. eigenvalues --    1.98722   1.98849   1.99237   1.99781   2.01353
 Alpha virt. eigenvalues --    2.02354   2.02508   2.03247   2.03688   2.04739
 Alpha virt. eigenvalues --    2.07692   2.08423   2.09068   2.10351   2.11043
 Alpha virt. eigenvalues --    2.11333   2.12112   2.12786   2.13795   2.13865
 Alpha virt. eigenvalues --    2.14209   2.14602   2.15370   2.16115   2.17090
 Alpha virt. eigenvalues --    2.18040   2.18094   2.18401   2.21416   2.21707
 Alpha virt. eigenvalues --    2.22727   2.23339   2.23791   2.24917   2.25938
 Alpha virt. eigenvalues --    2.26126   2.27473   2.29457   2.29813   2.29954
 Alpha virt. eigenvalues --    2.31481   2.32914   2.33314   2.33925   2.34982
 Alpha virt. eigenvalues --    2.36156   2.36631   2.37078   2.37604   2.38371
 Alpha virt. eigenvalues --    2.39602   2.40123   2.41134   2.41357   2.42328
 Alpha virt. eigenvalues --    2.42843   2.43288   2.45206   2.45964   2.47750
 Alpha virt. eigenvalues --    2.48147   2.48875   2.49297   2.50548   2.51756
 Alpha virt. eigenvalues --    2.52804   2.53232   2.53523   2.54039   2.54791
 Alpha virt. eigenvalues --    2.55918   2.56137   2.56915   2.58424   2.58729
 Alpha virt. eigenvalues --    2.59589   2.61067   2.63528   2.63731   2.64362
 Alpha virt. eigenvalues --    2.65432   2.65669   2.65863   2.67935   2.69326
 Alpha virt. eigenvalues --    2.69389   2.69976   2.70300   2.72035   2.73664
 Alpha virt. eigenvalues --    2.73788   2.75059   2.75876   2.77270   2.78258
 Alpha virt. eigenvalues --    2.78602   2.80248   2.81337   2.82421   2.84002
 Alpha virt. eigenvalues --    2.84880   2.85077   2.85416   2.86272   2.86391
 Alpha virt. eigenvalues --    2.87040   2.87371   2.88357   2.89875   2.90969
 Alpha virt. eigenvalues --    2.91978   2.92578   2.93629   2.96279   2.99538
 Alpha virt. eigenvalues --    3.01935   3.04350   3.05345   3.10157   3.11380
 Alpha virt. eigenvalues --    3.13414   3.15906   3.18082   3.19861   3.19909
 Alpha virt. eigenvalues --    3.21346   3.22753   3.25377   3.29220   3.29578
 Alpha virt. eigenvalues --    3.30818   3.32207   3.32546   3.37484   3.39542
 Alpha virt. eigenvalues --    3.40274   3.41590   3.42165   3.43564   3.44242
 Alpha virt. eigenvalues --    3.45393   3.46101   3.46850   3.48861   3.51842
 Alpha virt. eigenvalues --    3.53085   3.57824   3.61885   3.63865   3.72994
 Alpha virt. eigenvalues --    3.78217   4.03002   4.06763   4.09726   4.10550
 Alpha virt. eigenvalues --    4.11533   4.13763   4.14542   4.24799   4.27632
 Alpha virt. eigenvalues --    4.28669   4.33202   4.36419   4.38760   4.42005
 Alpha virt. eigenvalues --    4.44495   4.45691   4.49673   4.54562   4.57382
 Alpha virt. eigenvalues --    4.58441   4.72547   4.72891   4.73802   4.76574
 Alpha virt. eigenvalues --    4.84647   4.88652
  Beta  occ. eigenvalues --  -19.19692 -14.42678 -14.35805 -14.35350 -10.30224
  Beta  occ. eigenvalues --  -10.29752 -10.27747 -10.24976 -10.24919 -10.24781
  Beta  occ. eigenvalues --  -10.24312 -10.23875 -10.23538 -10.23244 -10.23007
  Beta  occ. eigenvalues --  -10.22695 -10.22321 -10.21932 -10.21884 -10.19773
  Beta  occ. eigenvalues --  -10.19759 -10.19746 -10.19518 -10.18903 -10.18883
  Beta  occ. eigenvalues --  -10.18496  -1.09623  -1.02736  -1.00769  -0.89290
  Beta  occ. eigenvalues --   -0.89078  -0.87558  -0.84669  -0.81906  -0.80181
  Beta  occ. eigenvalues --   -0.79806  -0.75864  -0.75584  -0.74781  -0.71357
  Beta  occ. eigenvalues --   -0.70112  -0.70049  -0.68015  -0.64306  -0.62786
  Beta  occ. eigenvalues --   -0.62427  -0.61896  -0.60387  -0.59596  -0.57195
  Beta  occ. eigenvalues --   -0.56672  -0.53555  -0.53421  -0.52767  -0.50847
  Beta  occ. eigenvalues --   -0.50195  -0.49284  -0.47797  -0.47201  -0.46900
  Beta  occ. eigenvalues --   -0.45848  -0.45482  -0.44854  -0.44753  -0.44658
  Beta  occ. eigenvalues --   -0.43378  -0.43310  -0.43198  -0.42871  -0.41384
  Beta  occ. eigenvalues --   -0.41032  -0.40660  -0.40468  -0.39604  -0.39275
  Beta  occ. eigenvalues --   -0.39137  -0.38131  -0.37739  -0.36583  -0.36198
  Beta  occ. eigenvalues --   -0.35816  -0.35565  -0.34123  -0.33184  -0.32681
  Beta  occ. eigenvalues --   -0.32625  -0.31519  -0.30852  -0.30372  -0.29113
  Beta  occ. eigenvalues --   -0.25505  -0.24070
  Beta virt. eigenvalues --   -0.18092  -0.10314  -0.04830  -0.01263   0.00066
  Beta virt. eigenvalues --    0.01742   0.05742   0.06990   0.07819   0.08801
  Beta virt. eigenvalues --    0.09573   0.09906   0.11388   0.12200   0.12393
  Beta virt. eigenvalues --    0.12536   0.13368   0.13855   0.14481   0.14812
  Beta virt. eigenvalues --    0.15007   0.15324   0.15477   0.16483   0.16650
  Beta virt. eigenvalues --    0.16785   0.17114   0.17365   0.17600   0.17857
  Beta virt. eigenvalues --    0.17915   0.18353   0.19424   0.19568   0.20232
  Beta virt. eigenvalues --    0.21243   0.21330   0.22193   0.23051   0.23151
  Beta virt. eigenvalues --    0.23530   0.23946   0.24784   0.25638   0.26246
  Beta virt. eigenvalues --    0.26574   0.27800   0.28434   0.29216   0.29601
  Beta virt. eigenvalues --    0.31090   0.33027   0.33335   0.34569   0.36807
[...]
 .00089547,0.00027205,-0.00016728,-0.00938058,0.00092354,-0.00037886,-0
 .00034615,0.00025723,-0.00004758,-0.00032586,0.00030758,0.00005489,0.0
 5944815,-0.06180136,0.00419329,0.00047554,0.00036257,0.00049541,0.0002
 9717,0.00079360,0.00090289,0.00029097,0.00011276,-0.00022986,-0.000224
 28,0.00065129,-0.00073270,-0.06189655,0.06208505,0.00000031,0.00000096
 ,0.00000060,0.00000051,0.00000172,0.00000166,-0.00000024,0.00000019,-0
 .00000045,-0.00000017,-0.00000070,0.00000386,0.00000034,-0.00000052,0.
 00000017,-0.00000274,0.00000537,-0.00003666,0.00000049,-0.00000043,0.0
 0000200,0.00000005,-0.00000010,-0.00000121,0.00000010,0.00000005,-0.00
 000002,-0.00000014,0.00000007,-0.00000170,0.00000145,-0.00000039,-0.00
 000033,-0.00000005,-0.00000003,-0.00000035,0.00000066,-0.00000084,0.00
 000030,0.,0.00000109,0.00000066,0.,-0.00000059,-0.00000002,-0.00000027
 ,0.,0.,0.00000007,-0.00000021,-0.00000004,0.00000008,-0.00000006,-0.00
 000121,0.,0.,-0.00000010,0.00000020,0.00000030,0.00000026,-0.00000012,
 0.,-0.00000040,-0.00000021,-0.00000024,0.00000011,0.00000004,0.0000002
 5,0.,-0.00000001,0.00000004,-0.00000003,-0.00000010,0.,0.00000003,0.00
 000007,-0.00000002,0.00000001,0.,-0.00000001,-0.00000003,-0.00000002,0
 .00000008,0.00000053,0.00000329,0.00000160,-0.00000007,-0.00000778,-0.
 00000744,0.00000540,-0.00000860,0.00000954,-0.00000697,0.00001682,0.00
 007440,0.00042605,-0.00001847,-0.00014388,-0.00096829,-0.00114113,-0.0
 0365528,-0.00419485,0.00168005,0.00223824,-0.00545628,0.00000078,0.000
 02322,0.00009856,-0.02594291,0.00709623,-0.00152999,0.00034856,0.00001
 971,0.00001403,-0.00190589,-0.00002288,0.00001257,0.02938092,-0.007502
 83,0.00242789,-0.00026854,-0.00008432,-0.00000037,0.00202740,-0.000049
 06,0.00010117,-0.01548004,0.00413436,-0.04766974,0.00063836,0.00083495
 ,0.00080934,0.00068638,0.00014107,0.00100890,-0.00063855,-0.00054142,0
 .00096980,-0.00071739,0.00000717,0.00129831,0.01588921,-0.00341439,0.0
 5343248,-0.00000347,-0.00000212,-0.00000009,0.00000472,0.00000731,-0.0
 0000025,0.00000016,-0.00001113,0.00000055,0.00001734,0.00000828,-0.000
 00019,-0.00001729,0.00001454,-0.00000070,0.00001821,-0.00000071,0.0000
 0120,-0.00000156,0.00000908,-0.00000046,0.00000007,0.00000018,0.,0.000
 00035,-0.00000025,0.00000005,-0.00000147,0.00000093,0.,0.00000617,-0.0
 0000717,0.00000041,-0.00000873,0.00000648,-0.00000033,0.00001055,-0.00
 000836,0.00000038,-0.00000442,0.00001535,-0.00000073,0.00000058,-0.000
 00941,0.00000038,-0.00000542,-0.00000071,0.00000008,-0.00000090,-0.000
 00829,0.00000038,-0.00000019,-0.00000037,0.00000012,0.00000017,0.00000
 058,-0.00000003,0.00000014,0.00000310,-0.00000025,-0.00000038,0.,0.000
 00004,-0.00000101,0.00000008,-0.00000004,-0.00000101,0.00000005,0.0000
 0008,0.00000033,-0.00000043,0.00000008,0.00000039,0.00000015,-0.000000
 05,0.00000041,0.00000017,0.00000001,0.00000029,0.00000043,-0.00000003,
 0.00000815,-0.00000682,0.00000034,0.00000128,-0.00000094,-0.00000006,-
 0.00003400,-0.00000083,-0.00000287,0.00000232,0.00000509,-0.00000161,-
 0.00000744,-0.00001645,-0.00000136,-0.00006655,0.00002541,0.00000369,0
 .00090400,-0.00092705,0.00048414,0.00091420,-0.00103433,-0.00017639,0.
 00002253,0.00014362,-0.00001869,0.00022870,-0.01391582,0.00167062,-0.0
 0025306,-0.00013738,-0.00003912,0.00016148,0.00016998,-0.00000320,0.00
 035352,-0.01530855,0.00274137,-0.00005903,-0.00023472,-0.00000807,0.00
 017560,0.00017633,-0.00003548,-0.05283333,0.02231428,-0.00333718,0.000
 20635,0.00042234,0.00034572,-0.00026883,-0.00163563,-0.00205950,0.0004
 5404,0.00050618,-0.00043680,-0.00058416,-0.00105814,0.00264730,-0.0014
 5858,0.03107874,-0.00455149,0.05212778,0.00000221,0.00001940,-0.000000
 51,-0.00000076,0.00000312,-0.00000022,-0.00000210,0.00001417,-0.000000
 71,-0.00002504,-0.00001054,0.00000041,0.00002161,-0.00004475,0.0000017
 5,-0.00007219,0.00004972,-0.00000752,0.00000921,0.00000438,-0.00000009
 ,-0.00000052,0.00000007,0.,-0.00000303,0.00000185,-0.00000006,0.000002
 27,0.00000246,0.,-0.00001272,0.00000090,-0.00000035,0.00000872,-0.0000
 0872,0.00000055,-0.00000356,-0.00000126,0.00000012,0.00000221,-0.00000
 344,0.00000009,0.00000112,0.00000111,-0.00000002,0.00000169,0.00000042
 ,-0.00000005,0.00000140,0.00000594,-0.00000027,0.00000059,-0.00000021,
 0.00000010,0.00000011,-0.00000043,0.00000005,0.00000143,0.00000070,-0.
 00000005,-0.00000060,-0.00000040,0.00000008,0.00000014,0.00000005,0.00
 000027,0.00000009,-0.00000004,-0.00000028,-0.00000035,0.00000052,-0.00
 000009,-0.00000053,-0.00000026,0.00000025,-0.00000057,-0.00000030,-0.0
 0000021,-0.00000022,-0.00000037,0.00000004,-0.00000960,0.00000581,-0.0
 0000036,-0.00001717,-0.00001982,0.00000051,0.00008041,-0.00015320,0.00
 000937,0.00000929,-0.00000992,0.00000339,-0.00018120,0.00005945,0.0000
 1668,0.00014216,0.00024992,-0.00007260,0.00073689,0.00047872,0.0007103
 0,0.00039915,0.00029607,-0.00052732,0.00012915,-0.00003854,-0.00000181
 ,0.00150502,-0.01667511,0.00140184,-0.00111395,-0.00005895,0.00027948,
 -0.00007363,0.00032670,-0.00014840,0.00087097,-0.00809253,0.00176176,-
 0.00122124,-0.00002359,-0.00004789,-0.00014919,0.00027078,0.00003220,0
 .02091743,-0.29494858,0.03647357,0.00007043,0.00017951,0.00002529,-0.0
 0171061,-0.00060824,-0.00301464,0.00005572,0.00070091,0.00038666,-0.00
 086643,0.00080178,0.00162687,0.00109021,-0.00623564,0.00084615,-0.0205
 8488,0.32342687,-0.00000059,-0.00000230,0.00000102,0.00000046,0.000000
 35,0.00000046,0.00000017,-0.00000223,0.00000001,0.00000388,0.00000149,
 0.00000123,-0.00000352,0.00000676,-0.00000125,0.00001039,-0.00000551,-
 0.00000972,-0.00000141,-0.00000062,0.00000034,0.00000007,-0.00000004,-
 0.00000034,0.00000047,-0.00000022,0.00000024,-0.00000023,-0.00000011,0
 .00000050,0.00000239,-0.00000058,-0.00000003,-0.00000137,0.00000125,-0
 .00000028,0.00000096,-0.00000039,0.00000013,-0.00000043,0.00000137,0.0
 0000046,-0.00000005,-0.00000081,-0.00000002,-0.00000050,-0.00000005,0.
 00000005,-0.00000020,-0.00000105,0.00000003,0.,-0.00000009,-0.00000078
 ,0.,0.00000007,-0.00000011,-0.00000002,0.00000025,0.00000023,0.0000000
 2,-0.00000002,-0.00000062,-0.00000035,-0.00000030,0.00000006,0.0000001
 7,0.00000028,0.00000010,0.00000005,-0.00000007,0.00000001,0.00000002,0
 .00000006,-0.00000002,0.00000013,0.00000002,0.00000004,0.00000004,0.00
 000006,-0.00000005,0.00000144,-0.00000083,0.00000028,0.00000340,0.0000
 0307,-0.00000015,-0.00001293,0.00002179,0.00000630,-0.00000632,0.00000
 426,-0.00000265,0.00002854,0.00001602,0.00014289,-0.00001985,-0.000090
 48,-0.00031514,0.00115199,0.00001857,0.00097296,-0.00132369,0.00013643
 ,0.00105301,-0.00001789,-0.00000023,-0.00007560,0.00199214,-0.02805934
 ,0.00249296,-0.00009388,0.00067082,-0.00004915,0.00026356,0.00024462,-
 0.00008898,-0.00222077,0.03025858,-0.00660839,0.00031280,-0.00054702,0
 .00027658,-0.00021690,-0.00034196,-0.00004229,-0.00323506,0.03643043,-
 0.05298494,0.00075101,0.00097602,0.00100424,-0.00304104,-0.00308181,-0
 .00369589,-0.00061353,-0.00025382,0.00135952,0.00364455,0.00168879,-0.
 00478259,-0.00013902,0.00166873,-0.00072967,0.00277749,-0.03975267,0.0
 6207308,-0.00483980,0.01103339,-0.00076833,0.00227321,0.00071254,-0.00
 004276,0.00027271,0.00189335,-0.00007570,-0.00211911,-0.00122307,0.000
 01048,0.00127855,-0.00288266,0.00016490,-0.00615156,0.00200994,0.00000
 917,-0.00151685,-0.00615599,0.00030731,0.00008095,-0.00015749,0.000016
 42,-0.00008949,-0.00001340,-0.00000857,0.00013169,-0.00020941,0.000007
 39,0.00561636,-0.00123870,0.00012796,-0.00055750,0.00069611,-0.0000343
 3,0.00090051,-0.00075485,0.00003342,-0.00040324,0.00130395,-0.00005992
 ,0.00003020,-0.00075354,0.00003051,-0.00033022,0.00000424,0.00000219,0
 .00000333,-0.00055164,0.00002501,0.00021296,-0.00020087,-0.00003428,0.
 00002312,0.00005510,-0.00000338,0.00003928,0.00023877,-0.00001838,-0.0
 0003254,-0.00000211,0.00000078,-0.00008234,0.00001627,-0.00000106,-0.0
 0008207,0.00001524,0.00000339,0.00000866,-0.00000168,0.00000319,0.0000
 3467,0.00001344,-0.00000352,0.00003722,0.00001501,0.00000110,0.0000353
 5,0.00003624,-0.00000255,0.00068858,0.00001856,-0.00000638,0.00194254,
 0.00407039,0.00008463,0.02697428,0.01283256,0.00057487,-0.00176427,0.0
 0441305,-0.00054318,-0.18247405,-0.15377590,-0.00021404,-0.01162709,-0
 .01821558,-0.00013024,-0.00193426,0.00065342,-0.00094660,-0.00233539,0
 .00119992,0.00097397,0.00070238,-0.00026775,0.00010589,0.00003516,-0.0
 0022689,0.00058849,0.00010789,-0.00006859,-0.00010348,0.00064913,0.000
 65549,0.00020431,0.00007535,-0.00056033,-0.00060558,0.00001962,-0.0000
 7593,0.00010772,0.00011727,0.00006834,-0.00008023,0.00014334,0.0000252
 4,-0.00000868,-0.00017352,0.00006469,-0.00001279,-0.00001521,0.0000321
 4,0.00000830,-0.00023591,0.00007568,-0.00000551,-0.00000015,0.00002856
 ,-0.00001956,0.00000292,0.00000351,0.00000865,-0.00000866,-0.00001343,
 0.00000394,0.17482610,0.00400378,0.00392894,0.00007838,0.00109906,-0.0
 0058110,0.00005589,0.00014606,0.00152987,-0.00007200,-0.00205564,-0.00
 084993,0.00001577,0.00152250,-0.00242494,0.00012161,-0.00451550,0.0018
 5079,-0.00053500,-0.00082541,-0.00311132,0.00008154,0.00002787,-0.0000
 8479,0.00000549,-0.00011540,0.00002894,-0.00000196,0.00006914,0.000068
 27,0.00000353,0.00125718,-0.00034496,0.00007076,0.00032552,-0.00015445
 ,0.00000837,-0.00037310,0.00026325,-0.00001897,-0.00002793,-0.00047974
 ,0.00001911,0.00001885,0.00023720,-0.00000794,0.00020288,0.00003802,-0
 .00000357,0.00003701,0.00028986,-0.00001406,0.00017997,-0.00008279,0.0
 0002185,0.00000757,-0.00000798,0.00000031,-0.00000731,-0.00009780,0.00
 000660,0.00002087,-0.00001252,-0.00000046,0.00003126,0.00000390,-0.000
 00597,0.00003144,0.00000511,0.00000389,-0.00000910,0.00001237,-0.00000
 165,-0.00000552,-0.00000340,-0.00000050,-0.00000606,-0.00000357,0.0000
 0125,-0.00000481,-0.00000518,0.00000051,-0.00021393,0.00039832,-0.0000
 2225,0.00242688,-0.00213589,-0.00003804,-0.01099958,-0.03267657,0.0008
 8750,0.00271308,-0.00103258,0.00058294,-0.14990461,-0.27834789,0.00349
 330,0.00386428,0.01158215,0.00009424,0.00146759,-0.00013013,0.00063959
 ,0.00201984,-0.00025748,-0.00067724,0.00096062,0.00082073,-0.00006782,
 0.00002662,0.00013445,-0.00053119,-0.00004707,0.00000528,0.00002157,0.
 00051850,0.00075990,0.00007266,0.00000430,0.00041927,0.00056215,-0.000
 01664,0.00002607,0.00002625,-0.00021996,-0.00012549,0.00014820,-0.0001
 0290,-0.00014285,0.00003613,0.00025746,-0.00004269,-0.00004743,0.00004
 504,-0.00005193,0.00002156,0.00031333,-0.00003772,0.00007159,0.0000384
 9,-0.00006461,-0.00000830,0.00007216,0.00001990,-0.00001102,0.00000015
 ,0.00003219,-0.00000733,0.14589404,0.30115771,-0.00041282,0.00011645,0
 .00021885,-0.00003738,0.00007448,0.00049467,-0.00001459,-0.00001139,-0
 .00008786,-0.00000184,-0.00000418,0.00023951,0.00000988,-0.00002613,-0
 .00043326,0.00006817,-0.00011128,-0.00587383,0.00002396,-0.00004153,-0
 .00103256,0.00000010,-0.00000007,-0.00003428,-0.00000179,0.00000565,0.
 00010082,-0.00000189,-0.00000191,0.00006670,-0.00001110,0.00004070,0.0
 0059520,0.00000551,-0.00000557,0.00000413,-0.00000134,-0.00000050,-0.0
 0011612,0.00000885,-0.00000590,-0.00006939,0.00000115,0.00000859,0.000
 02249,0.00000247,0.00000023,-0.00000523,0.00000082,0.00000414,0.000000
 62,-0.00000046,0.00007970,0.00019282,-0.00000030,-0.00000007,0.0000041
 6,0.00000005,-0.00000049,-0.00000959,0.00000006,0.00000150,0.00000833,
 0.00000192,0.00000436,-0.00000031,-0.00000106,-0.00000408,-0.00000019,
 -0.00000009,0.00000038,0.00000091,0.00000064,-0.00000014,-0.00000017,-
 0.00000128,-0.00000023,-0.00000037,-0.00000018,-0.00000019,0.00000051,
 -0.00000418,0.00000330,-0.00002151,0.00004414,0.00004741,-0.00417144,0
 .00151168,0.00217085,0.00435586,-0.00052819,0.00052393,0.00992367,-0.0
 0000920,0.00312004,-0.02891400,-0.00070645,-0.00069286,0.00050936,0.00
 124411,-0.00031147,-0.00085799,-0.00205801,0.00009429,-0.00100013,-0.0
 0015320,-0.00039452,0.00056102,0.00015560,-0.00026662,-0.00012415,-0.0
 0030037,-0.00003332,0.00030545,0.00030345,0.00021752,0.00006411,-0.000
 08120,-0.00001411,-0.00027585,0.00033334,0.00005698,0.00030712,0.00043
 206,0.00042769,-0.00019748,-0.00001587,0.00001608,-0.00002751,0.000012
 34,0.00000988,-0.00004252,0.00004680,0.00001449,-0.00000945,-0.0000941
 9,-0.00001322,-0.00006485,-0.00004442,0.00000553,-0.00001297,-0.000009
 77,-0.00000702,-0.00001516,0.00000062,-0.00000162,0.00000218,0.0002834
 6,-0.00510043,0.02533385,0.00780642,-0.00321312,0.00026563,0.00218874,
 -0.01738596,0.00085170,0.00018244,0.00478781,-0.00023808,-0.00526995,-
 0.00131883,-0.00003416,0.00325877,-0.00201085,0.00016026,0.00227919,0.
 00078739,0.00001289,-0.01806233,-0.00476920,0.00000828,-0.00015816,-0.
 00053778,0.00004887,0.00008558,0.00006692,-0.00000635,0.00000914,0.000
 04274,0.00000195,-0.01269857,0.03391555,-0.00240241,0.02592482,0.02351
 102,-0.00125160,-0.00812008,0.00681749,-0.00036968,0.00262624,-0.00921
 624,0.00045388,0.00154171,0.00523778,-0.00024904,0.00463225,0.00156753
 ,-0.00011736,-0.00713080,0.01271602,-0.00073181,0.00007403,-0.00002758
 ,-0.00000137,-0.00048401,0.00016173,0.00001271,-0.00008290,-0.00130628
 ,0.00009757,0.00005674,0.00000928,-0.00000498,0.00035799,-0.00001066,-
 0.00001180,0.00035696,-0.00000377,-0.00000739,-0.00109462,-0.00027662,
 -0.00001990,-0.00005890,-0.00023463,-0.00003140,-0.00007343,-0.0002284
 9,0.00007092,-0.00005001,-0.00004863,0.00000908,-0.08954131,-0.0590884
 1,0.00272815,0.00763876,0.00712388,-0.00029496,0.00001542,0.00074688,-
 0.00003466,0.00010565,-0.00001840,0.00000140,0.00011321,-0.00009191,0.
 00001338,-0.00010176,0.00008025,-0.00001043,0.00002101,-0.00001335,0.0
 0003055,0.00002697,-0.00002127,-0.00002288,0.00000661,-0.00000533,0.00
 000110,-0.00000410,0.00000629,-0.00001667,-0.00000094,0.00000387,-0.00
 000064,-0.00000203,-0.00000135,0.00000066,-0.00000506,0.00000926,0.000
 01425,-0.00000336,0.00000198,-0.00000053,-0.00000158,-0.00000120,0.000
 00106,-0.00000118,-0.00000771,0.00000106,0.00001070,-0.00000079,-0.000
 00195,-0.00000018,0.00000077,0.00000134,0.00001073,0.00000027,0.000003
 06,0.00000055,0.00000016,-0.00000168,0.00000447,0.00000101,0.00000007,
 -0.00000031,0.00000389,-0.00000053,-0.00049011,-0.00015285,0.,0.084100
 59,0.01275030,-0.00918938,0.00068180,-0.00238901,-0.02709038,0.0011124
 6,-0.00047967,0.00859959,-0.00047585,-0.00981322,-0.00293686,-0.000041
 12,0.00686511,-0.00462807,0.00033919,0.00278212,0.00296279,-0.00003962
 ,-0.00654773,0.00221411,-0.00018724,-0.00034423,0.00001604,-0.00000699
 ,0.00009254,-0.00003435,-0.00000360,-0.00001692,0.00000057,0.00001028,
 0.01505663,0.02859344,-0.00223277,0.03362258,-0.05982700,0.00345417,-0
 .01212014,0.01035605,-0.00070812,0.00381084,-0.01650212,0.00079262,0.0
 0283020,0.00900415,-0.00041834,0.00605053,0.00021496,0.00000064,-0.001
 96446,0.01920167,-0.00064619,-0.00038497,0.00034929,-0.00000423,-0.000
 25238,-0.00002070,-0.00003487,-0.00003102,-0.00178941,0.00013985,0.000
 07370,0.00000386,-0.00000636,0.00047622,0.00002194,-0.00002649,0.00047
 255,0.00003541,-0.00000393,-0.00135998,0.00059238,-0.00017360,-0.00025
 474,-0.00041183,0.00027320,-0.00022918,-0.00041956,-0.00016983,-0.0002
 0769,0.00010686,0.00002596,-0.06652795,-0.17098702,0.00753137,0.015399
 11,0.01171164,-0.00034852,0.00119799,0.00029900,0.00002058,0.00003851,
 -0.00003015,-0.00000040,-0.00024423,0.00069127,-0.00003816,0.00009162,
 0.00000911,0.00003211,-0.00002584,0.00003030,-0.00007898,-0.00001767,0
 .00004530,0.00004842,-0.00004344,0.00001181,-0.00000753,0.00000429,-0.
 00002421,0.00003573,0.00000315,0.00000155,0.00000326,0.00000443,0.0000
 0022,0.00000782,0.00000579,-0.00002777,-0.00002051,0.00000517,0.000003
 50,-0.00000411,0.00000351,-0.00000377,-0.00000626,0.00000233,0.0000073
 2,-0.00000111,-0.00001862,0.00000263,0.00000028,-0.00000332,0.00000682
 ,-0.00000319,-0.00001551,0.00000126,-0.00000187,-0.00000356,0.00000676
 ,0.00000104,-0.00000740,-0.00000157,-0.00000007,0.00000165,0.00000134,
 -0.00000021,-0.00072938,-0.00032218,0.00000466,0.00239143,0.19914336,-
 0.00067430,0.00049207,0.00097458,0.00008561,0.00122898,-0.00313322,0.0
 0003482,-0.00044826,-0.00044164,0.00048097,0.00014092,0.00007614,-0.00
 033067,0.00021829,-0.00013701,-0.00016182,-0.00011620,0.00054608,0.000
 48172,-0.00000357,0.00106998,0.00005243,-0.00002965,-0.00011533,-0.000
 00591,0.00000213,0.00003444,-0.00000020,0.00000035,0.00002253,-0.00136
 988,-0.00188388,-0.01152859,-0.00192262,0.00321476,-0.00132940,0.00075
 940,-0.00083501,-0.00338560,-0.00018375,0.00082606,-0.00025324,-0.0001
 4338,-0.00044076,0.00030976,-0.00030017,0.00006575,0.00079109,0.000023
 39,-0.00060054,0.00668628,0.00002020,-0.00001622,0.00007579,0.00000079
 ,-0.00004465,-0.00096688,0.00000183,0.00009173,0.00001117,-0.00000371,
 0.00000048,0.00001491,-0.00001016,-0.00000865,0.00000778,-0.00003841,0
 .00000751,0.00000654,0.00005533,-0.00003649,-0.00035138,-0.00004770,-0
 .00010902,0.00004248,0.00006210,0.00014554,0.00004749,0.00001414,0.000
 00438,0.00006310,0.00289849,0.00751029,-0.03125318,-0.00084591,-0.0005
 1820,0.00130143,-0.00005048,-0.00001828,0.00005768,-0.00000061,-0.0000
 0026,-0.00004045,0.00000417,-0.00003222,-0.00004864,-0.00000185,-0.000
 00006,0.00001542,-0.00000372,0.00000190,0.00000203,0.00000348,-0.00000
 555,-0.00000106,0.00000154,0.00000008,0.00000039,0.00000040,-0.0000000
 9,-0.00000002,0.00000051,-0.00000041,-0.00000024,-0.00000001,-0.000001
 03,-0.00000207,-0.00000054,0.00000236,0.00000153,-0.00000083,0.0000006
 1,-0.00000036,0.,0.00000037,-0.00000170,-0.00000022,-0.00000008,0.0000
 0140,0.00000057,0.00000024,-0.00000084,0.00000006,-0.00000019,0.000000
 46,0.00000070,-0.00000060,-0.00000059,-0.00000008,-0.00000007,0.000000
 27,0.00000028,-0.00000008,-0.00000076,-0.00000005,-0.00000003,-0.00000
 026,0.00004163,0.00002062,0.00008585,0.00107243,-0.00882536,0.04074586
 \\-0.00000258,-0.00000198,0.00000102,-0.00000280,-0.00000432,0.0000019
 2,-0.00000493,-0.00000537,0.00000243,-0.00000662,-0.00000390,0.0000021
 5,-0.00000646,-0.00000168,0.00000132,-0.00000437,-0.00000088,0.0000007
 7,0.00000069,-0.00000357,0.00000174,-0.00000516,-0.00000704,0.00000306
 ,-0.00000828,-0.00000459,0.00000255,-0.00000780,-0.00000072,0.00000114
 ,-0.00000079,-0.00000541,0.00000198,0.00000326,-0.00000603,0.00000151,
 0.00000317,-0.00000419,0.00000090,0.00000416,-0.00000218,0.00000047,0.
 00000646,-0.00000284,0.00000021,0.00000726,-0.00000481,0.00000104,0.00
 000591,-0.00000680,0.00000173,0.00000370,-0.00000074,-0.00000009,0.000
 00898,-0.00000520,0.00000083,0.00000796,-0.00000089,-0.00000069,0.0000
 0733,0.00000049,-0.00000098,0.00000965,-0.00000116,-0.00000068,0.00000
 874,-0.00000096,-0.00000063,0.00000672,-0.00000887,0.00000237,0.000006
 47,-0.00000988,0.00000278,0.00000569,-0.00000952,0.00000274,0.00000844
 ,-0.00000894,0.00000222,0.00000241,-0.00000802,0.00000259,-0.00000043,
 -0.00000186,0.00000049,-0.00000402,0.00000131,-0.00000006,-0.00000553,
 0.00000242,-0.00000027,-0.00000228,0.00000243,-0.00000062,-0.00000201,
 0.00000467,-0.00000145,-0.00000325,0.00000598,-0.00000173,-0.00000242,
 0.00000544,-0.00000165,-0.00000008,0.00000491,-0.00000170,-0.00000279,
 0.00000838,-0.00000266,-0.00000506,0.00000571,-0.00000144,-0.00000282,
 0.00000542,-0.00000161,-0.00000198,0.00000783,-0.00000255,-0.00000423,
 0.00000520,-0.00000135,-0.00000143,0.00000447,-0.00000142,-0.00000329,
 0.00000916,-0.00000289,-0.00000383,0.00000933,-0.00000285,-0.00000098,
 0.00000860,-0.00000296,-0.00000239,0.00000835,-0.00000268,-0.00000016,
 0.00000807,-0.00000283,-0.00000287,0.00001085,-0.00000351,-0.00000509,
 0.00000907,-0.00000263,-0.00000088,0.00000150,-0.00000041,0.00000064,-
 0.00000721,0.00000236\\\@


 IT IS A QUALITY OF REVOLUTIONS NOT TO GO BY OLD LINES OR OLD LAWS,
 BUT TO BREAK UP BOTH, AND MAKE NEW ONES.
                                              -- A. LINCOLN (1848)
 Job cpu time:       0 days  8 hours  8 minutes  4.6 seconds.
 Elapsed time:       0 days  0 hours 30 minutes 35.0 seconds.
 File lengths (MBytes):  RWF=   3156 Int=      0 D2E=      0 Chk=     56 Scr=      8
 Normal termination of Gaussian 16 at Mon Dec 17 14:30:14 2018.
