 Entering Gaussian System, Link 0=g16
 Initial command:
 /gpfs/apps/hpc/Apps/Restricted/Gaussian/Rev_A.03/g16/l1.exe "/gpfs/scratch60/fas/hammes_schiffer/jg2487/c24n04/Gau-11573.inp" -scrdir="/gpfs/scratch60/fas/hammes_schiffer/jg2487/c24n04/"
 Entering Link 1 = /gpfs/apps/hpc/Apps/Restricted/Gaussian/Rev_A.03/g16/l1.exe PID=     11574.
  
 Copyright (c) 1988,1990,1992,1993,1995,1998,2003,2009,2016,
            Gaussian, Inc.  All Rights Reserved.
  
 This is part of the Gaussian(R) 16 program.  It is based on
 the Gaussian(R) 09 system (copyright 2009, Gaussian, Inc.),
 the Gaussian(R) 03 system (copyright 2003, Gaussian, Inc.),
 the Gaussian(R) 98 system (copyright 1998, Gaussian, Inc.),
 the Gaussian(R) 94 system (copyright 1995, Gaussian, Inc.),
 the Gaussian 92(TM) system (copyright 1992, Gaussian, Inc.),
 the Gaussian 90(TM) system (copyright 1990, Gaussian, Inc.),
 the Gaussian 88(TM) system (copyright 1988, Gaussian, Inc.),
 the Gaussian 86(TM) system (copyright 1986, Carnegie Mellon
 University), and the Gaussian 82(TM) system (copyright 1983,
 Carnegie Mellon University). Gaussian is a federally registered
 trademark of Gaussian, Inc.
  
 This software contains proprietary and confidential information,
 including trade secrets, belonging to Gaussian, Inc.
  
 This software is provided under written license and may be
 used, copied, transmitted, or stored only in accord with that
 written license.
  
 The following legend is applicable only to US Government
 contracts under FAR:
  
                    RESTRICTED RIGHTS LEGEND
  
 Use, reproduction and disclosure by the US Government is
 subject to restrictions as set forth in subparagraphs (a)
 and (c) of the Commercial Computer Software - Restricted
 Rights clause in FAR 52.227-19.
  
 Gaussian, Inc.
 340 Quinnipiac St., Bldg. 40, Wallingford CT 06492
  
  
 ---------------------------------------------------------------
 Warning -- This program may not be used in any manner that
 competes with the business of Gaussian, Inc. or will provide
 assistance to any competitor of Gaussian, Inc.  The licensee
 of this program is prohibited from giving any competitor of
 Gaussian, Inc. access to this program.  By using this program,
 the user acknowledges that Gaussian, Inc. is engaged in the
 business of creating and licensing software in the field of
 computational chemistry and represents and warrants to the
 licensee that it is not a competitor of Gaussian, Inc. and that
 it will not use this program in any manner prohibited above.
 ---------------------------------------------------------------
  

 Cite this work as:
 Gaussian 16, Revision A.03,
 M. J. Frisch, G. W. Trucks, H. B. Schlegel, G. E. Scuseria, 
 M. A. Robb, J. R. Cheeseman, G. Scalmani, V. Barone, 
 G. A. Petersson, H. Nakatsuji, X. Li, M. Caricato, A. V. Marenich, 
 J. Bloino, B. G. Janesko, R. Gomperts, B. Mennucci, H. P. Hratchian, 
 J. V. Ortiz, A. F. Izmaylov, J. L. Sonnenberg, D. Williams-Young, 
 F. Ding, F. Lipparini, F. Egidi, J. Goings, B. Peng, A. Petrone, 
 T. Henderson, D. Ranasinghe, V. G. Zakrzewski, J. Gao, N. Rega, 
 G. Zheng, W. Liang, M. Hada, M. Ehara, K. Toyota, R. Fukuda, 
 J. Hasegawa, M. Ishida, T. Nakajima, Y. Honda, O. Kitao, H. Nakai, 
 T. Vreven, K. Throssell, J. A. Montgomery, Jr., J. E. Peralta, 
 F. Ogliaro, M. J. Bearpark, J. J. Heyd, E. N. Brothers, K. N. Kudin, 
 V. N. Staroverov, T. A. Keith, R. Kobayashi, J. Normand, 
 K. Raghavachari, A. P. Rendell, J. C. Burant, S. S. Iyengar, 
 J. Tomasi, M. Cossi, J. M. Millam, M. Klene, C. Adamo, R. Cammi, 
 J. W. Ochterski, R. L. Martin, K. Morokuma, O. Farkas, 
 J. B. Foresman, and D. J. Fox, Gaussian, Inc., Wallingford CT, 2016.
 
 ******************************************
 Gaussian 16:  ES64L-G16RevA.03 25-Dec-2016
                16-Dec-2018 
 ******************************************
 %chk=cyclohexyl-monoBIP-TS2_rev.chk
 %mem=10GB
 %nprocshared=16
 Will use up to   16 processors via shared memory.
 ----------------------------------------------------------------------
 #p opt=(calcfc,tight,ts,noeigentest) freq=internalmodes b3lyp/6-31g(d,
 p) scrf=(cpcm,solvent=dichloromethane,read) nosymm guess=read empirica
 ldispersion=gd3bj int=grid=ultrafine
 ----------------------------------------------------------------------
 1/5=1,7=10,10=4,11=1,18=20,26=6,38=1,40=2/1,3;
 2/9=110,12=2,15=1,17=6,18=5,40=1/2;
 3/5=1,6=6,7=101,11=2,25=1,30=1,70=2103,71=2,72=9,74=-5,75=-5,116=-2,124=41,140=1/1,2,3;
 4/5=1/1;
 5/5=2,38=6,53=9/2;
 8/6=4,10=90,11=11/1;
 11/6=1,8=1,9=11,15=111,16=1,31=1/1,2,10;
 10/6=1,13=1,31=1/2;
 6/7=2,8=2,9=2,10=2,28=1/1;
 7/10=1,18=20,25=1,30=1/1,2,3,16;
 1/5=1,7=10,10=4,11=1,18=20,26=6/3(2);
 2/9=110,15=1/2;
 99//99;
 2/9=110,15=1/2;
 3/5=1,6=6,7=101,11=2,25=1,30=1,70=2105,71=1,72=9,74=-5,75=-5,124=41/1,2,3;
 4/5=5,16=3,69=1/1;
 5/5=2,38=5,53=9/2;
 7/30=1/1,2,3,16;
 1/5=1,7=10,11=1,18=20,26=6/3(-5);
 2/9=110,15=1/2;
 6/7=2,8=2,9=2,10=2,19=2,28=1/1;
 99/9=1/99;
 Leave Link    1 at Sun Dec 16 15:16:06 2018, MaxMem=  1342177280 cpu:               8.3 elap:               0.6
 (Enter /gpfs/apps/hpc/Apps/Restricted/Gaussian/Rev_A.03/g16/l101.exe)
 ----------------------------------------------------------------------
 cyclohexylimine monoBIP oxidized, optimize to transition state of firs
 t proton transferred
 ----------------------------------------------------------------------
 Symbolic Z-matrix:
 Charge =  1 Multiplicity = 2
 C                    -0.42419   2.67174   0.27773 
 C                    -1.83568   2.79279   0.23762 
 C                    -2.43393   4.05878   0.14155 
 C                    -1.58508   5.1559    0.09357 
 C                    -0.17868   5.02067   0.13608 
 C                     0.44283   3.77617   0.22939 
 C                    -1.33669   0.66604   0.36926 
 H                    -3.51007   4.16887   0.10552 
 H                    -2.00793   6.15044   0.02131 
 H                     0.4382    5.91089   0.09589 
 N                    -2.36559   1.52551   0.29775 
 C                    -2.95818  -1.18915   0.41953 
 C                    -1.56604  -0.75275   0.42968 
 C                    -0.55906  -1.70281   0.4788 
 C                    -0.86681  -3.07205   0.52101 
 C                    -2.23064  -3.48478   0.52577 
 C                    -3.27348  -2.59449   0.48095 
 H                     0.47865  -1.39239   0.47917 
 H                    -2.44452  -4.54684   0.56929 
 C                     0.21415  -4.10109   0.53956 
 H                     1.1964   -3.65188   0.68098 
 H                     0.03505  -4.83795   1.32772 
 H                     0.21665  -4.65347  -0.40708 
 C                    -4.70983  -3.00981   0.48526 
 H                    -5.24635  -2.54246   1.31532 
 H                    -5.20862  -2.69064  -0.4343 
 H                    -4.79374  -4.09258   0.57395 
 O                    -3.92255  -0.33374   0.35053 
 N                    -0.04177   1.37849   0.36167 
 H                     1.31235   1.59085   0.38056 
 C                     1.89445   3.60335   0.27084 
 H                     2.49114   4.51934   0.21674 
 N                     2.30151   2.38779   0.36582 
 C                     3.76569   2.26831   0.40534 
 C                     4.41443   2.69492  -0.92193 
 C                     4.39559   3.03243   1.58145 
 H                     3.97549   1.20273   0.55061 
 C                     5.93004   2.47004  -0.87863 
 H                     4.20121   3.75746  -1.08922 
 H                     3.96129   2.13862  -1.74792 
 C                     5.91      2.8011    1.62866 
 H                     4.19808   4.1039    1.45799 
 H                     3.91964   2.72242   2.51632 
 C                     6.57071   3.20383   0.30489 
 H                     6.38472   2.79096  -1.82062 
 H                     6.12659   1.39454  -0.78435 
 H                     6.3452    3.36199   2.46137 
 H                     6.10676   1.73945   1.82366 
 H                     7.64584   3.00346   0.33957 
 H                     6.45294   4.28535   0.16181 
 H                    -3.45551   0.69607   0.30998 
 
 Add virtual bond connecting atoms N29        and H30        Dist= 2.59D+00.
 Add virtual bond connecting atoms N33        and H30        Dist= 2.40D+00.
 ITRead=  0  0  0  0  0  0  0  0  0  0  0  0  0  0  0  0  0  0  0  0
 ITRead=  0  0  0  0  0  0  0  0  0  0  0  0  0  0  0  0  0  0  0  0
 ITRead=  0  0  0  0  0  0  0  0  0  0  0
 MicOpt= -1 -1 -1 -1 -1 -1 -1 -1 -1 -1 -1 -1 -1 -1 -1 -1 -1 -1 -1 -1
 MicOpt= -1 -1 -1 -1 -1 -1 -1 -1 -1 -1 -1 -1 -1 -1 -1 -1 -1 -1 -1 -1
 MicOpt= -1 -1 -1 -1 -1 -1 -1 -1 -1 -1 -1
 NAtoms=     51 NQM=       51 NQMF=       0 NMMI=      0 NMMIF=      0
                NMic=       0 NMicF=      0.
                    Isotopes and Nuclear Properties:
 (Nuclear quadrupole moments (NQMom) in fm**2, nuclear magnetic moments (NMagM)
  in nuclear magnetons)

  Atom         1           2           3           4           5           6           7           8           9          10
 IAtWgt=          12          12          12          12          12          12          12           1           1           1
 AtmWgt=  12.0000000  12.0000000  12.0000000  12.0000000  12.0000000  12.0000000  12.0000000   1.0078250   1.0078250   1.0078250
 NucSpn=           0           0           0           0           0           0           0           1           1           1
 AtZEff=  -0.0000000  -0.0000000  -0.0000000  -0.0000000  -0.0000000  -0.0000000  -0.0000000  -0.0000000  -0.0000000  -0.0000000
 NQMom=    0.0000000   0.0000000   0.0000000   0.0000000   0.0000000   0.0000000   0.0000000   0.0000000   0.0000000   0.0000000
 NMagM=    0.0000000   0.0000000   0.0000000   0.0000000   0.0000000   0.0000000   0.0000000   2.7928460   2.7928460   2.7928460
 AtZNuc=   6.0000000   6.0000000   6.0000000   6.0000000   6.0000000   6.0000000   6.0000000   1.0000000   1.0000000   1.0000000

  Atom        11          12          13          14          15          16          17          18          19          20
 IAtWgt=          14          12          12          12          12          12          12           1           1          12
 AtmWgt=  14.0030740  12.0000000  12.0000000  12.0000000  12.0000000  12.0000000  12.0000000   1.0078250   1.0078250  12.0000000
 NucSpn=           2           0           0           0           0           0           0           1           1           0
 AtZEff=  -0.0000000  -0.0000000  -0.0000000  -0.0000000  -0.0000000  -0.0000000  -0.0000000  -0.0000000  -0.0000000  -0.0000000
 NQMom=    2.0440000   0.0000000   0.0000000   0.0000000   0.0000000   0.0000000   0.0000000   0.0000000   0.0000000   0.0000000
 NMagM=    0.4037610   0.0000000   0.0000000   0.0000000   0.0000000   0.0000000   0.0000000   2.7928460   2.7928460   0.0000000
 AtZNuc=   7.0000000   6.0000000   6.0000000   6.0000000   6.0000000   6.0000000   6.0000000   1.0000000   1.0000000   6.0000000

  Atom        21          22          23          24          25          26          27          28          29          30
 IAtWgt=           1           1           1          12           1           1           1          16          14           1
 AtmWgt=   1.0078250   1.0078250   1.0078250  12.0000000   1.0078250   1.0078250   1.0078250  15.9949146  14.0030740   1.0078250
 NucSpn=           1           1           1           0           1           1           1           0           2           1
 AtZEff=  -0.0000000  -0.0000000  -0.0000000  -0.0000000  -0.0000000  -0.0000000  -0.0000000  -0.0000000  -0.0000000  -0.0000000
 NQMom=    0.0000000   0.0000000   0.0000000   0.0000000   0.0000000   0.0000000   0.0000000   0.0000000   2.0440000   0.0000000
 NMagM=    2.7928460   2.7928460   2.7928460   0.0000000   2.7928460   2.7928460   2.7928460   0.0000000   0.4037610   2.7928460
 AtZNuc=   1.0000000   1.0000000   1.0000000   6.0000000   1.0000000   1.0000000   1.0000000   8.0000000   7.0000000   1.0000000

  Atom        31          32          33          34          35          36          37          38          39          40
 IAtWgt=          12           1          14          12          12          12           1          12           1           1
 AtmWgt=  12.0000000   1.0078250  14.0030740  12.0000000  12.0000000  12.0000000   1.0078250  12.0000000   1.0078250   1.0078250
 NucSpn=           0           1           2           0           0           0           1           0           1           1
 AtZEff=  -0.0000000  -0.0000000  -0.0000000  -0.0000000  -0.0000000  -0.0000000  -0.0000000  -0.0000000  -0.0000000  -0.0000000
 NQMom=    0.0000000   0.0000000   2.0440000   0.0000000   0.0000000   0.0000000   0.0000000   0.0000000   0.0000000   0.0000000
 NMagM=    0.0000000   2.7928460   0.4037610   0.0000000   0.0000000   0.0000000   2.7928460   0.0000000   2.7928460   2.7928460
 AtZNuc=   6.0000000   1.0000000   7.0000000   6.0000000   6.0000000   6.0000000   1.0000000   6.0000000   1.0000000   1.0000000

  Atom        41          42          43          44          45          46          47          48          49          50
 IAtWgt=          12           1           1          12           1           1           1           1           1           1
 AtmWgt=  12.0000000   1.0078250   1.0078250  12.0000000   1.0078250   1.0078250   1.0078250   1.0078250   1.0078250   1.0078250
 NucSpn=           0           1           1           0           1           1           1           1           1           1
 AtZEff=  -0.0000000  -0.0000000  -0.0000000  -0.0000000  -0.0000000  -0.0000000  -0.0000000  -0.0000000  -0.0000000  -0.0000000
 NQMom=    0.0000000   0.0000000   0.0000000   0.0000000   0.0000000   0.0000000   0.0000000   0.0000000   0.0000000   0.0000000
 NMagM=    0.0000000   2.7928460   2.7928460   0.0000000   2.7928460   2.7928460   2.7928460   2.7928460   2.7928460   2.7928460
 AtZNuc=   6.0000000   1.0000000   1.0000000   6.0000000   1.0000000   1.0000000   1.0000000   1.0000000   1.0000000   1.0000000

  Atom        51
 IAtWgt=           1
 AtmWgt=   1.0078250
 NucSpn=           1
 AtZEff=  -0.0000000
 NQMom=    0.0000000
 NMagM=    2.7928460
 AtZNuc=   1.0000000
 Leave Link  101 at Sun Dec 16 15:16:06 2018, MaxMem=  1342177280 cpu:               4.7 elap:               0.4
 (Enter /gpfs/apps/hpc/Apps/Restricted/Gaussian/Rev_A.03/g16/l103.exe)

 GradGradGradGradGradGradGradGradGradGradGradGradGradGradGradGradGradGrad
 Berny optimization.
 Initialization pass.
                           ----------------------------
                           !    Initial Parameters    !
                           ! (Angstroms and Degrees)  !
 --------------------------                            --------------------------
 ! Name  Definition              Value          Derivative Info.                !
 --------------------------------------------------------------------------------
 ! R1    R(1,2)                  1.4172         calculate D2E/DX2 analytically  !
 ! R2    R(1,6)                  1.4049         calculate D2E/DX2 analytically  !
 ! R3    R(1,29)                 1.3512         calculate D2E/DX2 analytically  !
 ! R4    R(2,3)                  1.4035         calculate D2E/DX2 analytically  !
 ! R5    R(2,11)                 1.3749         calculate D2E/DX2 analytically  !
 ! R6    R(3,4)                  1.388          calculate D2E/DX2 analytically  !
 ! R7    R(3,8)                  1.0823         calculate D2E/DX2 analytically  !
 ! R8    R(4,5)                  1.4135         calculate D2E/DX2 analytically  !
 ! R9    R(4,9)                  1.0831         calculate D2E/DX2 analytically  !
 ! R10   R(5,6)                  1.3942         calculate D2E/DX2 analytically  !
 ! R11   R(5,10)                 1.0838         calculate D2E/DX2 analytically  !
 ! R12   R(6,31)                 1.4625         calculate D2E/DX2 analytically  !
 ! R13   R(7,11)                 1.3426         calculate D2E/DX2 analytically  !
 ! R14   R(7,13)                 1.4385         calculate D2E/DX2 analytically  !
 ! R15   R(7,29)                 1.478          calculate D2E/DX2 analytically  !
 ! R16   R(12,13)                1.459          calculate D2E/DX2 analytically  !
 ! R17   R(12,17)                1.4416         calculate D2E/DX2 analytically  !
 ! R18   R(12,28)                1.2909         calculate D2E/DX2 analytically  !
 ! R19   R(13,14)                1.3853         calculate D2E/DX2 analytically  !
 ! R20   R(14,15)                1.404          calculate D2E/DX2 analytically  !
 ! R21   R(14,18)                1.0831         calculate D2E/DX2 analytically  !
 ! R22   R(15,16)                1.4249         calculate D2E/DX2 analytically  !
 ! R23   R(15,20)                1.4926         calculate D2E/DX2 analytically  !
 ! R24   R(16,17)                1.3719         calculate D2E/DX2 analytically  !
 ! R25   R(16,19)                1.0842         calculate D2E/DX2 analytically  !
 ! R26   R(17,24)                1.4952         calculate D2E/DX2 analytically  !
 ! R27   R(20,21)                1.0893         calculate D2E/DX2 analytically  !
 ! R28   R(20,22)                1.0937         calculate D2E/DX2 analytically  !
 ! R29   R(20,23)                1.096          calculate D2E/DX2 analytically  !
 ! R30   R(24,25)                1.0933         calculate D2E/DX2 analytically  !
 ! R31   R(24,26)                1.0937         calculate D2E/DX2 analytically  !
 ! R32   R(24,27)                1.0896         calculate D2E/DX2 analytically  !
 ! R33   R(28,51)                1.1315         calculate D2E/DX2 analytically  !
 ! R34   R(29,30)                1.3708         calculate D2E/DX2 analytically  !
 ! R35   R(30,33)                1.2703         calculate D2E/DX2 analytically  !
 ! R36   R(31,32)                1.0945         calculate D2E/DX2 analytically  !
 ! R37   R(31,33)                1.2854         calculate D2E/DX2 analytically  !
 ! R38   R(33,34)                1.4696         calculate D2E/DX2 analytically  !
 ! R39   R(34,35)                1.5377         calculate D2E/DX2 analytically  !
 ! R40   R(34,36)                1.5375         calculate D2E/DX2 analytically  !
 ! R41   R(34,37)                1.0957         calculate D2E/DX2 analytically  !
 ! R42   R(35,38)                1.5328         calculate D2E/DX2 analytically  !
 ! R43   R(35,39)                1.0966         calculate D2E/DX2 analytically  !
 ! R44   R(35,40)                1.0941         calculate D2E/DX2 analytically  !
 ! R45   R(36,41)                1.5327         calculate D2E/DX2 analytically  !
 ! R46   R(36,42)                1.0965         calculate D2E/DX2 analytically  !
 ! R47   R(36,43)                1.0939         calculate D2E/DX2 analytically  !
 ! R48   R(38,44)                1.5328         calculate D2E/DX2 analytically  !
 ! R49   R(38,45)                1.0941         calculate D2E/DX2 analytically  !
 ! R50   R(38,46)                1.0974         calculate D2E/DX2 analytically  !
 ! R51   R(41,44)                1.5333         calculate D2E/DX2 analytically  !
 ! R52   R(41,47)                1.0943         calculate D2E/DX2 analytically  !
 ! R53   R(41,48)                1.0972         calculate D2E/DX2 analytically  !
 ! R54   R(44,49)                1.0942         calculate D2E/DX2 analytically  !
 ! R55   R(44,50)                1.0973         calculate D2E/DX2 analytically  !
 ! A1    A(2,1,6)              123.1279         calculate D2E/DX2 analytically  !
 ! A2    A(2,1,29)             111.4307         calculate D2E/DX2 analytically  !
 ! A3    A(6,1,29)             125.4409         calculate D2E/DX2 analytically  !
 ! A4    A(1,2,3)              120.2317         calculate D2E/DX2 analytically  !
 ! A5    A(1,2,11)             107.6912         calculate D2E/DX2 analytically  !
 ! A6    A(3,2,11)             132.0752         calculate D2E/DX2 analytically  !
 ! A7    A(2,3,4)              117.0436         calculate D2E/DX2 analytically  !
 ! A8    A(2,3,8)              121.1864         calculate D2E/DX2 analytically  !
 ! A9    A(4,3,8)              121.7699         calculate D2E/DX2 analytically  !
 ! A10   A(3,4,5)              122.1291         calculate D2E/DX2 analytically  !
 ! A11   A(3,4,9)              119.2977         calculate D2E/DX2 analytically  !
 ! A12   A(5,4,9)              118.5732         calculate D2E/DX2 analytically  !
 ! A13   A(4,5,6)              122.0694         calculate D2E/DX2 analytically  !
 ! A14   A(4,5,10)             119.1184         calculate D2E/DX2 analytically  !
 ! A15   A(6,5,10)             118.8122         calculate D2E/DX2 analytically  !
 ! A16   A(1,6,5)              115.398          calculate D2E/DX2 analytically  !
 ! A17   A(1,6,31)             121.2441         calculate D2E/DX2 analytically  !
 ! A18   A(5,6,31)             123.3574         calculate D2E/DX2 analytically  !
 ! A19   A(11,7,13)            120.7608         calculate D2E/DX2 analytically  !
 ! A20   A(11,7,29)            111.2591         calculate D2E/DX2 analytically  !
 ! A21   A(13,7,29)            127.9778         calculate D2E/DX2 analytically  !
 ! A22   A(2,11,7)             107.2784         calculate D2E/DX2 analytically  !
 ! A23   A(13,12,17)           119.9998         calculate D2E/DX2 analytically  !
 ! A24   A(13,12,28)           120.9963         calculate D2E/DX2 analytically  !
 ! A25   A(17,12,28)           119.0032         calculate D2E/DX2 analytically  !
 ! A26   A(7,13,12)            116.5432         calculate D2E/DX2 analytically  !
 ! A27   A(7,13,14)            124.1953         calculate D2E/DX2 analytically  !
 ! A28   A(12,13,14)           119.2564         calculate D2E/DX2 analytically  !
 ! A29   A(13,14,15)           120.7009         calculate D2E/DX2 analytically  !
 ! A30   A(13,14,18)           119.992          calculate D2E/DX2 analytically  !
 ! A31   A(15,14,18)           119.3062         calculate D2E/DX2 analytically  !
 ! A32   A(14,15,16)           119.4964         calculate D2E/DX2 analytically  !
 ! A33   A(14,15,20)           120.93           calculate D2E/DX2 analytically  !
 ! A34   A(16,15,20)           119.5667         calculate D2E/DX2 analytically  !
 ! A35   A(15,16,17)           122.6476         calculate D2E/DX2 analytically  !
 ! A36   A(15,16,19)           118.2073         calculate D2E/DX2 analytically  !
 ! A37   A(17,16,19)           119.1449         calculate D2E/DX2 analytically  !
 ! A38   A(12,17,16)           117.8891         calculate D2E/DX2 analytically  !
 ! A39   A(12,17,24)           118.7518         calculate D2E/DX2 analytically  !
 ! A40   A(16,17,24)           123.3583         calculate D2E/DX2 analytically  !
 ! A41   A(15,20,21)           111.7369         calculate D2E/DX2 analytically  !
 ! A42   A(15,20,22)           110.7842         calculate D2E/DX2 analytically  !
 ! A43   A(15,20,23)           109.7786         calculate D2E/DX2 analytically  !
 ! A44   A(21,20,22)           109.3865         calculate D2E/DX2 analytically  !
 ! A45   A(21,20,23)           108.536          calculate D2E/DX2 analytically  !
 ! A46   A(22,20,23)           106.4538         calculate D2E/DX2 analytically  !
 ! A47   A(17,24,25)           110.7856         calculate D2E/DX2 analytically  !
 ! A48   A(17,24,26)           110.7697         calculate D2E/DX2 analytically  !
 ! A49   A(17,24,27)           110.5013         calculate D2E/DX2 analytically  !
 ! A50   A(25,24,26)           106.8454         calculate D2E/DX2 analytically  !
 ! A51   A(25,24,27)           108.9775         calculate D2E/DX2 analytically  !
 ! A52   A(26,24,27)           108.8623         calculate D2E/DX2 analytically  !
 ! A53   A(12,28,51)           107.2564         calculate D2E/DX2 analytically  !
 ! A54   A(1,29,7)             102.3403         calculate D2E/DX2 analytically  !
 ! A55   A(1,29,30)             97.5945         calculate D2E/DX2 analytically  !
 ! A56   A(7,29,30)            160.0646         calculate D2E/DX2 analytically  !
 ! A57   A(29,30,33)           150.0207         calculate D2E/DX2 analytically  !
 ! A58   A(6,31,32)            116.156          calculate D2E/DX2 analytically  !
 ! A59   A(6,31,33)            115.3512         calculate D2E/DX2 analytically  !
 ! A60   A(32,31,33)           128.4928         calculate D2E/DX2 analytically  !
 ! A61   A(30,33,31)           110.3364         calculate D2E/DX2 analytically  !
 ! A62   A(30,33,34)           136.4253         calculate D2E/DX2 analytically  !
 ! A63   A(31,33,34)           113.2273         calculate D2E/DX2 analytically  !
 ! A64   A(33,34,35)           111.9981         calculate D2E/DX2 analytically  !
 ! A65   A(33,34,36)           112.8519         calculate D2E/DX2 analytically  !
 ! A66   A(33,34,37)           105.8668         calculate D2E/DX2 analytically  !
 ! A67   A(35,34,36)           110.4593         calculate D2E/DX2 analytically  !
 ! A68   A(35,34,37)           107.6661         calculate D2E/DX2 analytically  !
 ! A69   A(36,34,37)           107.6654         calculate D2E/DX2 analytically  !
 ! A70   A(34,35,38)           110.6144         calculate D2E/DX2 analytically  !
 ! A71   A(34,35,39)           108.5709         calculate D2E/DX2 analytically  !
 ! A72   A(34,35,40)           109.6235         calculate D2E/DX2 analytically  !
 ! A73   A(38,35,39)           109.7998         calculate D2E/DX2 analytically  !
 ! A74   A(38,35,40)           110.8699         calculate D2E/DX2 analytically  !
 ! A75   A(39,35,40)           107.2753         calculate D2E/DX2 analytically  !
 ! A76   A(34,36,41)           110.6925         calculate D2E/DX2 analytically  !
 ! A77   A(34,36,42)           109.0092         calculate D2E/DX2 analytically  !
 ! A78   A(34,36,43)           109.5509         calculate D2E/DX2 analytically  !
 ! A79   A(41,36,42)           109.2044         calculate D2E/DX2 analytically  !
 ! A80   A(41,36,43)           111.1496         calculate D2E/DX2 analytically  !
 ! A81   A(42,36,43)           107.1443         calculate D2E/DX2 analytically  !
 ! A82   A(35,38,44)           111.3981         calculate D2E/DX2 analytically  !
 ! A83   A(35,38,45)           110.0937         calculate D2E/DX2 analytically  !
 ! A84   A(35,38,46)           108.8633         calculate D2E/DX2 analytically  !
 ! A85   A(44,38,45)           110.5271         calculate D2E/DX2 analytically  !
 ! A86   A(44,38,46)           109.1458         calculate D2E/DX2 analytically  !
 ! A87   A(45,38,46)           106.6791         calculate D2E/DX2 analytically  !
 ! A88   A(36,41,44)           111.0709         calculate D2E/DX2 analytically  !
 ! A89   A(36,41,47)           109.8185         calculate D2E/DX2 analytically  !
 ! A90   A(36,41,48)           109.1902         calculate D2E/DX2 analytically  !
 ! A91   A(44,41,47)           110.5471         calculate D2E/DX2 analytically  !
 ! A92   A(44,41,48)           109.2874         calculate D2E/DX2 analytically  !
 ! A93   A(47,41,48)           106.8218         calculate D2E/DX2 analytically  !
 ! A94   A(38,44,41)           111.1462         calculate D2E/DX2 analytically  !
 ! A95   A(38,44,49)           110.3341         calculate D2E/DX2 analytically  !
 ! A96   A(38,44,50)           109.0442         calculate D2E/DX2 analytically  !
 ! A97   A(41,44,49)           110.3609         calculate D2E/DX2 analytically  !
 ! A98   A(41,44,50)           108.978          calculate D2E/DX2 analytically  !
 ! A99   A(49,44,50)           106.8626         calculate D2E/DX2 analytically  !
 ! D1    D(6,1,2,3)              0.1821         calculate D2E/DX2 analytically  !
 ! D2    D(6,1,2,11)           179.7342         calculate D2E/DX2 analytically  !
 ! D3    D(29,1,2,3)          -179.5918         calculate D2E/DX2 analytically  !
 ! D4    D(29,1,2,11)           -0.0397         calculate D2E/DX2 analytically  !
 ! D5    D(2,1,6,5)             -0.0858         calculate D2E/DX2 analytically  !
 ! D6    D(2,1,6,31)          -179.8726         calculate D2E/DX2 analytically  !
 ! D7    D(29,1,6,5)           179.6559         calculate D2E/DX2 analytically  !
 ! D8    D(29,1,6,31)           -0.1309         calculate D2E/DX2 analytically  !
 ! D9    D(2,1,29,7)             0.1324         calculate D2E/DX2 analytically  !
 ! D10   D(2,1,29,30)          179.9768         calculate D2E/DX2 analytically  !
 ! D11   D(6,1,29,7)          -179.6352         calculate D2E/DX2 analytically  !
 ! D12   D(6,1,29,30)            0.2092         calculate D2E/DX2 analytically  !
 ! D13   D(1,2,3,4)             -0.1876         calculate D2E/DX2 analytically  !
 ! D14   D(1,2,3,8)            179.7356         calculate D2E/DX2 analytically  !
 ! D15   D(11,2,3,4)          -179.6127         calculate D2E/DX2 analytically  !
 ! D16   D(11,2,3,8)             0.3105         calculate D2E/DX2 analytically  !
 ! D17   D(1,2,11,7)            -0.0847         calculate D2E/DX2 analytically  !
 ! D18   D(3,2,11,7)           179.3939         calculate D2E/DX2 analytically  !
 ! D19   D(2,3,4,5)              0.1142         calculate D2E/DX2 analytically  !
 ! D20   D(2,3,4,9)           -179.8792         calculate D2E/DX2 analytically  !
 ! D21   D(8,3,4,5)           -179.8084         calculate D2E/DX2 analytically  !
 ! D22   D(8,3,4,9)              0.1981         calculate D2E/DX2 analytically  !
 ! D23   D(3,4,5,6)             -0.0247         calculate D2E/DX2 analytically  !
 ! D24   D(3,4,5,10)          -179.971          calculate D2E/DX2 analytically  !
 ! D25   D(9,4,5,6)            179.9688         calculate D2E/DX2 analytically  !
 ! D26   D(9,4,5,10)             0.0225         calculate D2E/DX2 analytically  !
 ! D27   D(4,5,6,1)              0.0072         calculate D2E/DX2 analytically  !
 ! D28   D(4,5,6,31)           179.7889         calculate D2E/DX2 analytically  !
 ! D29   D(10,5,6,1)           179.9536         calculate D2E/DX2 analytically  !
 ! D30   D(10,5,6,31)           -0.2646         calculate D2E/DX2 analytically  !
 ! D31   D(1,6,31,32)          179.3367         calculate D2E/DX2 analytically  !
 ! D32   D(1,6,31,33)           -0.6249         calculate D2E/DX2 analytically  !
 ! D33   D(5,6,31,32)           -0.4327         calculate D2E/DX2 analytically  !
 ! D34   D(5,6,31,33)          179.6057         calculate D2E/DX2 analytically  !
 ! D35   D(13,7,11,2)         -179.3079         calculate D2E/DX2 analytically  !
 ! D36   D(29,7,11,2)            0.1718         calculate D2E/DX2 analytically  !
 ! D37   D(11,7,13,12)          -0.4724         calculate D2E/DX2 analytically  !
 ! D38   D(11,7,13,14)         178.6999         calculate D2E/DX2 analytically  !
 ! D39   D(29,7,13,12)        -179.8572         calculate D2E/DX2 analytically  !
 ! D40   D(29,7,13,14)          -0.685          calculate D2E/DX2 analytically  !
 ! D41   D(11,7,29,1)           -0.1899         calculate D2E/DX2 analytically  !
 ! D42   D(11,7,29,30)        -179.7375         calculate D2E/DX2 analytically  !
 ! D43   D(13,7,29,1)          179.2429         calculate D2E/DX2 analytically  !
 ! D44   D(13,7,29,30)          -0.3047         calculate D2E/DX2 analytically  !
 ! D45   D(17,12,13,7)        -179.8399         calculate D2E/DX2 analytically  !
 ! D46   D(17,12,13,14)          0.9449         calculate D2E/DX2 analytically  !
 ! D47   D(28,12,13,7)           0.4447         calculate D2E/DX2 analytically  !
 ! D48   D(28,12,13,14)       -178.7706         calculate D2E/DX2 analytically  !
 ! D49   D(13,12,17,16)         -1.0454         calculate D2E/DX2 analytically  !
 ! D50   D(13,12,17,24)        179.2805         calculate D2E/DX2 analytically  !
 ! D51   D(28,12,17,16)        178.6757         calculate D2E/DX2 analytically  !
 ! D52   D(28,12,17,24)         -0.9984         calculate D2E/DX2 analytically  !
 ! D53   D(13,12,28,51)         -0.1761         calculate D2E/DX2 analytically  !
 ! D54   D(17,12,28,51)       -179.8943         calculate D2E/DX2 analytically  !
 ! D55   D(7,13,14,15)        -179.2677         calculate D2E/DX2 analytically  !
 ! D56   D(7,13,14,18)           0.3796         calculate D2E/DX2 analytically  !
 ! D57   D(12,13,14,15)         -0.1165         calculate D2E/DX2 analytically  !
 ! D58   D(12,13,14,18)        179.5308         calculate D2E/DX2 analytically  !
 ! D59   D(13,14,15,16)         -0.5848         calculate D2E/DX2 analytically  !
 ! D60   D(13,14,15,20)        178.4575         calculate D2E/DX2 analytically  !
 ! D61   D(18,14,15,16)        179.7654         calculate D2E/DX2 analytically  !
 ! D62   D(18,14,15,20)         -1.1922         calculate D2E/DX2 analytically  !
 ! D63   D(14,15,16,17)          0.4742         calculate D2E/DX2 analytically  !
 ! D64   D(14,15,16,19)       -179.3633         calculate D2E/DX2 analytically  !
 ! D65   D(20,15,16,17)       -178.5814         calculate D2E/DX2 analytically  !
 ! D66   D(20,15,16,19)          1.5812         calculate D2E/DX2 analytically  !
 ! D67   D(14,15,20,21)          9.3297         calculate D2E/DX2 analytically  !
 ! D68   D(14,15,20,22)        131.5751         calculate D2E/DX2 analytically  !
 ! D69   D(14,15,20,23)       -111.1386         calculate D2E/DX2 analytically  !
 ! D70   D(16,15,20,21)       -171.6286         calculate D2E/DX2 analytically  !
 ! D71   D(16,15,20,22)        -49.3832         calculate D2E/DX2 analytically  !
 ! D72   D(16,15,20,23)         67.9031         calculate D2E/DX2 analytically  !
 ! D73   D(15,16,17,12)          0.3458         calculate D2E/DX2 analytically  !
 ! D74   D(15,16,17,24)       -179.9963         calculate D2E/DX2 analytically  !
 ! D75   D(19,16,17,12)       -179.8182         calculate D2E/DX2 analytically  !
 ! D76   D(19,16,17,24)         -0.1603         calculate D2E/DX2 analytically  !
 ! D77   D(12,17,24,25)        -56.889          calculate D2E/DX2 analytically  !
 ! D78   D(12,17,24,26)         61.5007         calculate D2E/DX2 analytically  !
 ! D79   D(12,17,24,27)       -177.7718         calculate D2E/DX2 analytically  !
 ! D80   D(16,17,24,25)        123.4559         calculate D2E/DX2 analytically  !
 ! D81   D(16,17,24,26)       -118.1544         calculate D2E/DX2 analytically  !
 ! D82   D(16,17,24,27)          2.5731         calculate D2E/DX2 analytically  !
 ! D83   D(1,29,30,33)           0.7877         calculate D2E/DX2 analytically  !
 ! D84   D(7,29,30,33)        -179.6582         calculate D2E/DX2 analytically  !
 ! D85   D(29,30,33,31)         -1.5391         calculate D2E/DX2 analytically  !
 ! D86   D(29,30,33,34)        179.7982         calculate D2E/DX2 analytically  !
 ! D87   D(6,31,33,30)           1.0714         calculate D2E/DX2 analytically  !
 ! D88   D(6,31,33,34)        -179.9316         calculate D2E/DX2 analytically  !
 ! D89   D(32,31,33,30)       -178.8845         calculate D2E/DX2 analytically  !
 ! D90   D(32,31,33,34)          0.1125         calculate D2E/DX2 analytically  !
 ! D91   D(30,33,34,35)        112.1725         calculate D2E/DX2 analytically  !
 ! D92   D(30,33,34,36)       -122.4227         calculate D2E/DX2 analytically  !
 ! D93   D(30,33,34,37)         -4.898          calculate D2E/DX2 analytically  !
 ! D94   D(31,33,34,35)        -66.463          calculate D2E/DX2 analytically  !
 ! D95   D(31,33,34,36)         58.9418         calculate D2E/DX2 analytically  !
 ! D96   D(31,33,34,37)        176.4664         calculate D2E/DX2 analytically  !
 ! D97   D(33,34,35,38)       -176.2312         calculate D2E/DX2 analytically  !
 ! D98   D(33,34,35,39)         63.2271         calculate D2E/DX2 analytically  !
 ! D99   D(33,34,35,40)        -53.6696         calculate D2E/DX2 analytically  !
 ! D100  D(36,34,35,38)         57.0591         calculate D2E/DX2 analytically  !
 ! D101  D(36,34,35,39)        -63.4826         calculate D2E/DX2 analytically  !
 ! D102  D(36,34,35,40)        179.6207         calculate D2E/DX2 analytically  !
 ! D103  D(37,34,35,38)        -60.2467         calculate D2E/DX2 analytically  !
 ! D104  D(37,34,35,39)        179.2116         calculate D2E/DX2 analytically  !
 ! D105  D(37,34,35,40)         62.3149         calculate D2E/DX2 analytically  !
 ! D106  D(33,34,36,41)        176.3426         calculate D2E/DX2 analytically  !
 ! D107  D(33,34,36,42)        -63.523          calculate D2E/DX2 analytically  !
 ! D108  D(33,34,36,43)         53.4261         calculate D2E/DX2 analytically  !
 ! D109  D(35,34,36,41)        -57.4243         calculate D2E/DX2 analytically  !
 ! D110  D(35,34,36,42)         62.7101         calculate D2E/DX2 analytically  !
 ! D111  D(35,34,36,43)        179.6591         calculate D2E/DX2 analytically  !
 ! D112  D(37,34,36,41)         59.8819         calculate D2E/DX2 analytically  !
 ! D113  D(37,34,36,42)       -179.9837         calculate D2E/DX2 analytically  !
 ! D114  D(37,34,36,43)        -63.0347         calculate D2E/DX2 analytically  !
 ! D115  D(34,35,38,44)        -56.1234         calculate D2E/DX2 analytically  !
 ! D116  D(34,35,38,45)       -179.1051         calculate D2E/DX2 analytically  !
 ! D117  D(34,35,38,46)         64.283          calculate D2E/DX2 analytically  !
 ! D118  D(39,35,38,44)         63.6828         calculate D2E/DX2 analytically  !
 ! D119  D(39,35,38,45)        -59.2988         calculate D2E/DX2 analytically  !
 ! D120  D(39,35,38,46)       -175.9108         calculate D2E/DX2 analytically  !
 ! D121  D(40,35,38,44)       -177.9548         calculate D2E/DX2 analytically  !
 ! D122  D(40,35,38,45)         59.0635         calculate D2E/DX2 analytically  !
 ! D123  D(40,35,38,46)        -57.5485         calculate D2E/DX2 analytically  !
 ! D124  D(34,36,41,44)         56.6129         calculate D2E/DX2 analytically  !
 ! D125  D(34,36,41,47)        179.2052         calculate D2E/DX2 analytically  !
 ! D126  D(34,36,41,48)        -63.9775         calculate D2E/DX2 analytically  !
 ! D127  D(42,36,41,44)        -63.4048         calculate D2E/DX2 analytically  !
 ! D128  D(42,36,41,47)         59.1876         calculate D2E/DX2 analytically  !
 ! D129  D(42,36,41,48)        176.0048         calculate D2E/DX2 analytically  !
 ! D130  D(43,36,41,44)        178.5968         calculate D2E/DX2 analytically  !
 ! D131  D(43,36,41,47)        -58.8108         calculate D2E/DX2 analytically  !
 ! D132  D(43,36,41,48)         58.0064         calculate D2E/DX2 analytically  !
 ! D133  D(35,38,44,41)         55.2665         calculate D2E/DX2 analytically  !
 ! D134  D(35,38,44,49)        178.0309         calculate D2E/DX2 analytically  !
 ! D135  D(35,38,44,50)        -64.8918         calculate D2E/DX2 analytically  !
 ! D136  D(45,38,44,41)        177.9998         calculate D2E/DX2 analytically  !
 ! D137  D(45,38,44,49)        -59.2357         calculate D2E/DX2 analytically  !
 ! D138  D(45,38,44,50)         57.8415         calculate D2E/DX2 analytically  !
 ! D139  D(46,38,44,41)        -64.9735         calculate D2E/DX2 analytically  !
 ! D140  D(46,38,44,49)         57.7909         calculate D2E/DX2 analytically  !
 ! D141  D(46,38,44,50)        174.8682         calculate D2E/DX2 analytically  !
 ! D142  D(36,41,44,38)        -55.3996         calculate D2E/DX2 analytically  !
 ! D143  D(36,41,44,49)       -178.1487         calculate D2E/DX2 analytically  !
 ! D144  D(36,41,44,50)         64.7979         calculate D2E/DX2 analytically  !
 ! D145  D(47,41,44,38)       -177.5697         calculate D2E/DX2 analytically  !
 ! D146  D(47,41,44,49)         59.6813         calculate D2E/DX2 analytically  !
 ! D147  D(47,41,44,50)        -57.3721         calculate D2E/DX2 analytically  !
 ! D148  D(48,41,44,38)         65.1333         calculate D2E/DX2 analytically  !
 ! D149  D(48,41,44,49)        -57.6157         calculate D2E/DX2 analytically  !
 ! D150  D(48,41,44,50)       -174.6691         calculate D2E/DX2 analytically  !
 --------------------------------------------------------------------------------
 Trust Radius=3.00D-01 FncErr=5.00D-06 GrdErr=5.00D-06 EigMax=2.50D+02 EigMin=1.00D-04
 Number of steps in this run=    306 maximum allowed number of steps=    306.
 Search for a saddle point of order  1.
 GradGradGradGradGradGradGradGradGradGradGradGradGradGradGradGradGradGrad

 Leave Link  103 at Sun Dec 16 15:16:06 2018, MaxMem=  1342177280 cpu:               0.5 elap:               0.1
 (Enter /gpfs/apps/hpc/Apps/Restricted/Gaussian/Rev_A.03/g16/l202.exe)
 Symmetry turned off by external request.
 Stoichiometry    C22H25N3O(1+,2)
 Framework group  C1[X(C22H25N3O)]
 Deg. of freedom   147
 Full point group                 C1      NOp   1
                          Input orientation:                          
 ---------------------------------------------------------------------
 Center     Atomic      Atomic             Coordinates (Angstroms)
 Number     Number       Type             X           Y           Z
 ---------------------------------------------------------------------
      1          6           0       -0.424191    2.671740    0.277732
      2          6           0       -1.835682    2.792786    0.237620
      3          6           0       -2.433932    4.058781    0.141547
      4          6           0       -1.585080    5.155900    0.093569
      5          6           0       -0.178679    5.020674    0.136079
      6          6           0        0.442832    3.776169    0.229386
      7          6           0       -1.336685    0.666036    0.369264
      8          1           0       -3.510066    4.168869    0.105523
      9          1           0       -2.007926    6.150438    0.021308
     10          1           0        0.438200    5.910889    0.095889
     11          7           0       -2.365591    1.525508    0.297750
     12          6           0       -2.958184   -1.189148    0.419530
     13          6           0       -1.566044   -0.752745    0.429680
     14          6           0       -0.559056   -1.702807    0.478795
     15          6           0       -0.866807   -3.072047    0.521013
     16          6           0       -2.230640   -3.484783    0.525765
     17          6           0       -3.273484   -2.594493    0.480952
     18          1           0        0.478651   -1.392386    0.479165
     19          1           0       -2.444521   -4.546836    0.569291
     20          6           0        0.214153   -4.101092    0.539564
     21          1           0        1.196401   -3.651878    0.680976
     22          1           0        0.035050   -4.837947    1.327723
     23          1           0        0.216654   -4.653468   -0.407084
     24          6           0       -4.709834   -3.009811    0.485260
     25          1           0       -5.246347   -2.542462    1.315320
     26          1           0       -5.208621   -2.690638   -0.434300
     27          1           0       -4.793742   -4.092576    0.573947
     28          8           0       -3.922550   -0.333742    0.350531
     29          7           0       -0.041768    1.378488    0.361668
     30          1           0        1.312351    1.590848    0.380557
     31          6           0        1.894450    3.603352    0.270844
     32          1           0        2.491136    4.519343    0.216736
     33          7           0        2.301506    2.387790    0.365818
     34          6           0        3.765692    2.268307    0.405336
     35          6           0        4.414433    2.694917   -0.921926
     36          6           0        4.395593    3.032430    1.581448
     37          1           0        3.975488    1.202730    0.550612
     38          6           0        5.930040    2.470038   -0.878632
     39          1           0        4.201207    3.757458   -1.089221
     40          1           0        3.961288    2.138616   -1.747921
     41          6           0        5.909998    2.801097    1.628659
     42          1           0        4.198078    4.103896    1.457989
     43          1           0        3.919640    2.722421    2.516322
     44          6           0        6.570711    3.203827    0.304888
     45          1           0        6.384717    2.790958   -1.820617
     46          1           0        6.126588    1.394538   -0.784351
     47          1           0        6.345200    3.361985    2.461374
     48          1           0        6.106757    1.739451    1.823661
     49          1           0        7.645838    3.003461    0.339572
     50          1           0        6.452944    4.285353    0.161808
     51          1           0       -3.455509    0.696067    0.309977
 ---------------------------------------------------------------------
 Rotational constants (GHZ):           0.2926525           0.1062039           0.0805285
 Leave Link  202 at Sun Dec 16 15:16:07 2018, MaxMem=  1342177280 cpu:               1.4 elap:               0.1
 (Enter /gpfs/apps/hpc/Apps/Restricted/Gaussian/Rev_A.03/g16/l301.exe)
 Standard basis: 6-31G(d,p) (6D, 7F)
 Ernie: Thresh=  0.10000D-02 Tol=  0.10000D-05 Strict=F.
   515 basis functions,   903 primitive gaussians,   515 cartesian basis functions
    93 alpha electrons       92 beta electrons
       nuclear repulsion energy      2199.2608930559 Hartrees.
 IExCor=  402 DFT=T Ex+Corr=B3LYP ExCW=0 ScaHFX=  0.200000
 ScaDFX=  0.800000  0.720000  1.000000  0.810000 ScalE2=  1.000000  1.000000
 IRadAn=      5 IRanWt=     -1 IRanGd=            0 ICorTp=0 IEmpDi=141
 NAtoms=   51 NActive=   51 NUniq=   51 SFac= 1.00D+00 NAtFMM=   60 NAOKFM=F Big=F
 Integral buffers will be    131072 words long.
 Raffenetti 2 integral format.
 Two-electron integral symmetry is turned off.
 R6Disp:  Grimme-D3(BJ) Dispersion energy=       -0.1080900947 Hartrees.
 Nuclear repulsion after empirical dispersion term =     2199.1528029611 Hartrees.
 Force inversion solution in PCM.
 Using the following non-standard input for PCM:
 radii=bondi
 dis
 rep
 cav
 --- end of non-standard input.
 Force inversion solution in PCM.
 ------------------------------------------------------------------------------
 Polarizable Continuum Model (PCM)
 =================================
 Model                : C-PCM.
 Atomic radii         : Bondi.
 Polarization charges : Total charges.
 Charge compensation  : None.
 Solution method      : Matrix inversion.
 Cavity type          : Scaled VdW (van der Waals Surface) (Alpha=1.100).
 Cavity algorithm     : GePol (No added spheres)
                        Default sphere list used, NSphG=   51.
                        Lebedev-Laikov grids with approx.  5.0 points / Ang**2.
                        Smoothing algorithm: York/Karplus (Gamma=1.0000).
                        Polarization charges: spherical gaussians, with
                                              point-specific exponents (IZeta= 3).
                        Self-potential: point-specific (ISelfS= 7).
                        Self-field    : sphere-specific E.n sum rule (ISelfD= 2).
 1st derivatives      : Analytical E(r).r(x)/FMM algorithm (CHGder, D1EAlg=3).
                        Cavity 1st derivative terms included.
 2nd derivatives      : Analytical E(r).r(xy)/FMM algorithm (CHGder, D2EAlg=3).
                        Cavity 2nd derivative terms included.
 Solvent              : Dichloromethane, Eps=   8.930000 Eps(inf)=   2.028346
 ------------------------------------------------------------------------------
 GePol: Number of generator spheres                  =      51
 GePol: Total number of spheres                      =      51
 GePol: Number of exposed spheres                    =      51 (100.00%)
 GePol: Number of points                             =    3445
 GePol: Average weight of points                     =       0.12
 GePol: Minimum weight of points                     =   0.23D-10
 GePol: Maximum weight of points                     =    0.21770
 GePol: Number of points with low weight             =     227
 GePol: Fraction of low-weight points (<1% of avg)   =       6.59%
 GePol: Cavity surface area                          =    406.938 Ang**2
 GePol: Cavity volume                                =    385.500 Ang**3
 PCM non-electrostatic energy =         0.0143410639 Hartrees.
 Nuclear repulsion after PCM non-electrostatic terms =     2199.1671440250 Hartrees.
 Leave Link  301 at Sun Dec 16 15:16:07 2018, MaxMem=  1342177280 cpu:               3.8 elap:               0.3
 (Enter /gpfs/apps/hpc/Apps/Restricted/Gaussian/Rev_A.03/g16/l302.exe)
 NPDir=0 NMtPBC=     1 NCelOv=     1 NCel=       1 NClECP=     1 NCelD=      1
         NCelK=      1 NCelE2=     1 NClLst=     1 CellRange=     0.0.
 One-electron integrals computed using PRISM.
 NBasis=   515 RedAO= T EigKep=  3.04D-04  NBF=   515
 NBsUse=   515 1.00D-06 EigRej= -1.00D+00 NBFU=   515
 Precomputing XC quadrature grid using
 IXCGrd= 4 IRadAn=           5 IRanWt=          -1 IRanGd=           0 AccXCQ= 0.00D+00.
 Generated NRdTot=       0 NPtTot=           0 NUsed=           0 NTot=          32
 NSgBfM=   505   505   505   505   505 MxSgAt=    51 MxSgA2=    51.
 Leave Link  302 at Sun Dec 16 15:16:10 2018, MaxMem=  1342177280 cpu:              35.8 elap:               2.5
 (Enter /gpfs/apps/hpc/Apps/Restricted/Gaussian/Rev_A.03/g16/l303.exe)
 DipDrv:  MaxL=1.
 Leave Link  303 at Sun Dec 16 15:16:10 2018, MaxMem=  1342177280 cpu:               3.3 elap:               0.4
 (Enter /gpfs/apps/hpc/Apps/Restricted/Gaussian/Rev_A.03/g16/l401.exe)
 Initial guess from the checkpoint file:  "cyclohexyl-monoBIP-TS2_rev.chk"
 B after Tr=    -0.047479   -0.015723   -0.000294
         Rot=    1.000000   -0.000001   -0.000025    0.000277 Ang=  -0.03 deg.
 Guess basis will be translated and rotated to current coordinates.
 JPrj=2 DoOrth=T DoCkMO=T.
 Initial guess <Sx>= 0.0000 <Sy>= 0.0000 <Sz>= 0.5000 <S**2>= 0.7640 S= 0.5070
 Leave Link  401 at Sun Dec 16 15:16:13 2018, MaxMem=  1342177280 cpu:              39.6 elap:               2.6
 (Enter /gpfs/apps/hpc/Apps/Restricted/Gaussian/Rev_A.03/g16/l502.exe)
 Two-electron integral symmetry not used.
 UHF open shell SCF:
 Using DIIS extrapolation, IDIIS=  1040.
 NGot=  1342177280 LenX=  1341634262 LenY=  1341368522
 Requested convergence on RMS density matrix=1.00D-08 within 128 cycles.
 Requested convergence on MAX density matrix=1.00D-06.
 Requested convergence on             energy=1.00D-06.
 No special actions if energy rises.
 Fock matrices will be formed incrementally for  20 cycles.

 Cycle   1  Pass 1  IDiag  1:
 FoFJK:  IHMeth= 1 ICntrl=       0 DoSepK=F KAlg= 0 I1Cent=           0 FoldK=F
 IRaf= 600000000 NMat=       1 IRICut=       1 DoRegI=T DoRafI=F ISym2E= 0 IDoP0=0 IntGTp=1.
 FoFCou: FMM=F IPFlag=           0 FMFlag=      100000 FMFlg1=           0
         NFxFlg=           0 DoJE=F BraDBF=F KetDBF=F FulRan=T
         wScrn=  0.000000 ICntrl=         0 IOpCl=  1 I1Cent=           0 NGrid=           0
         NMat0=    1 NMatS0=      1 NMatT0=    0 NMatD0=    1 NMtDS0=    0 NMtDT0=    0
 Symmetry not used in FoFCou.
 Inv3:  Mode=1 IEnd=    35604075.
 Iteration    1 A*A^-1 deviation from unit magnitude is 6.77D-15 for   2302.
 Iteration    1 A*A^-1 deviation from orthogonality  is 4.25D-15 for   3443   2197.
 Iteration    1 A^-1*A deviation from unit magnitude is 6.77D-15 for   2302.
 Iteration    1 A^-1*A deviation from orthogonality  is 3.45D-15 for   3434   2203.
 E= -1092.73511245785    
 DIIS: error= 1.65D-02 at cycle   1 NSaved=   1.
 NSaved= 1 IEnMin= 1 EnMin= -1092.73511245785     IErMin= 1 ErrMin= 1.65D-02
 ErrMax= 1.65D-02  0.00D+00 EMaxC= 1.00D-01 BMatC= 2.88D-01 BMatP= 2.88D-01
 IDIUse=3 WtCom= 8.35D-01 WtEn= 1.65D-01
 Coeff-Com:  0.100D+01
 Coeff-En:   0.100D+01
 Coeff:      0.100D+01
 Gap=     0.145 Goal=   None    Shift=    0.000
 Gap=     0.072 Goal=   None    Shift=    0.000
 GapD=    0.072 DampG=0.500 DampE=0.500 DampFc=0.2500 IDamp=-1.
 Damping current iteration by 2.50D-01
 RMSDP=1.23D-03 MaxDP=8.09D-02              OVMax= 1.62D-01

 Cycle   2  Pass 1  IDiag  1:
 RMSU=  3.07D-04    CP:  9.98D-01
 E= -1092.76397328435     Delta-E=       -0.028860826498 Rises=F Damp=T
 DIIS: error= 1.28D-02 at cycle   2 NSaved=   2.
 NSaved= 2 IEnMin= 2 EnMin= -1092.76397328435     IErMin= 2 ErrMin= 1.28D-02
 ErrMax= 1.28D-02  0.00D+00 EMaxC= 1.00D-01 BMatC= 1.53D-01 BMatP= 2.88D-01
 IDIUse=3 WtCom= 8.72D-01 WtEn= 1.28D-01
 Coeff-Com: -0.172D+01 0.272D+01
 Coeff-En:   0.000D+00 0.100D+01
 Coeff:     -0.150D+01 0.250D+01
 Gap=     0.149 Goal=   None    Shift=    0.000
 Gap=     0.066 Goal=   None    Shift=    0.000
 RMSDP=9.14D-04 MaxDP=7.64D-02 DE=-2.89D-02 OVMax= 6.73D-02

 Cycle   3  Pass 1  IDiag  1:
 RMSU=  5.48D-04    CP:  9.94D-01  3.00D+00
 E= -1092.83652723003     Delta-E=       -0.072553945675 Rises=F Damp=F
 DIIS: error= 1.03D-02 at cycle   3 NSaved=   3.
 NSaved= 3 IEnMin= 3 EnMin= -1092.83652723003     IErMin= 3 ErrMin= 1.03D-02
 ErrMax= 1.03D-02  0.00D+00 EMaxC= 1.00D-01 BMatC= 8.95D-02 BMatP= 1.53D-01
 IDIUse=3 WtCom= 8.97D-01 WtEn= 1.03D-01
 Coeff-Com: -0.146D+01 0.191D+01 0.555D+00
 Coeff-En:   0.000D+00 0.000D+00 0.100D+01
 Coeff:     -0.131D+01 0.171D+01 0.600D+00
 Gap=     0.138 Goal=   None    Shift=    0.000
 Gap=     0.060 Goal=   None    Shift=    0.000
 RMSDP=3.75D-04 MaxDP=4.94D-02 DE=-7.26D-02 OVMax= 8.11D-02

 Cycle   4  Pass 1  IDiag  1:
 RMSU=  2.89D-04    CP:  9.93D-01  3.00D+00  5.64D-01
 E= -1092.85436432611     Delta-E=       -0.017837096088 Rises=F Damp=F
 DIIS: error= 2.71D-03 at cycle   4 NSaved=   4.
 NSaved= 4 IEnMin= 4 EnMin= -1092.85436432611     IErMin= 4 ErrMin= 2.71D-03
 ErrMax= 2.71D-03  0.00D+00 EMaxC= 1.00D-01 BMatC= 9.60D-03 BMatP= 8.95D-02
 IDIUse=3 WtCom= 9.73D-01 WtEn= 2.71D-02
 Coeff-Com: -0.476D+00 0.601D+00 0.338D+00 0.537D+00
 Coeff-En:   0.000D+00 0.000D+00 0.107D+00 0.893D+00
 Coeff:     -0.463D+00 0.585D+00 0.332D+00 0.547D+00
 Gap=     0.139 Goal=   None    Shift=    0.000
 Gap=     0.061 Goal=   None    Shift=    0.000
 RMSDP=1.04D-04 MaxDP=9.32D-03 DE=-1.78D-02 OVMax= 1.54D-02

 Cycle   5  Pass 1  IDiag  1:
 RMSU=  6.14D-05    CP:  9.93D-01  3.00D+00  6.84D-01  8.21D-01
 E= -1092.85638945221     Delta-E=       -0.002025126100 Rises=F Damp=F
 DIIS: error= 3.88D-04 at cycle   5 NSaved=   5.
 NSaved= 5 IEnMin= 5 EnMin= -1092.85638945221     IErMin= 5 ErrMin= 3.88D-04
 ErrMax= 3.88D-04  0.00D+00 EMaxC= 1.00D-01 BMatC= 5.09D-04 BMatP= 9.60D-03
 IDIUse=3 WtCom= 9.96D-01 WtEn= 3.88D-03
 Coeff-Com: -0.826D-01 0.979D-01 0.129D+00 0.327D+00 0.529D+00
 Coeff-En:   0.000D+00 0.000D+00 0.000D+00 0.000D+00 0.100D+01
 Coeff:     -0.823D-01 0.975D-01 0.129D+00 0.326D+00 0.530D+00
 Gap=     0.139 Goal=   None    Shift=    0.000
 Gap=     0.061 Goal=   None    Shift=    0.000
 RMSDP=2.85D-05 MaxDP=3.16D-03 DE=-2.03D-03 OVMax= 7.35D-03

 Cycle   6  Pass 1  IDiag  1:
 RMSU=  2.10D-05    CP:  9.93D-01  3.00D+00  6.88D-01  8.48D-01  7.14D-01
 E= -1092.85651512101     Delta-E=       -0.000125668799 Rises=F Damp=F
 DIIS: error= 1.63D-04 at cycle   6 NSaved=   6.
 NSaved= 6 IEnMin= 6 EnMin= -1092.85651512101     IErMin= 6 ErrMin= 1.63D-04
 ErrMax= 1.63D-04  0.00D+00 EMaxC= 1.00D-01 BMatC= 3.62D-05 BMatP= 5.09D-04
 IDIUse=3 WtCom= 9.98D-01 WtEn= 1.63D-03
 Coeff-Com:  0.204D-01-0.285D-01 0.217D-01 0.806D-01 0.240D+00 0.666D+00
 Coeff-En:   0.000D+00 0.000D+00 0.000D+00 0.000D+00 0.000D+00 0.100D+01
 Coeff:      0.204D-01-0.284D-01 0.217D-01 0.804D-01 0.240D+00 0.666D+00
 Gap=     0.139 Goal=   None    Shift=    0.000
 Gap=     0.061 Goal=   None    Shift=    0.000
 RMSDP=1.17D-05 MaxDP=8.93D-04 DE=-1.26D-04 OVMax= 5.73D-03

 Cycle   7  Pass 1  IDiag  1:
 RMSU=  1.05D-05    CP:  9.93D-01  3.00D+00  6.91D-01  8.55D-01  7.83D-01
                    CP:  1.09D+00
 E= -1092.85653046354     Delta-E=       -0.000015342529 Rises=F Damp=F
 DIIS: error= 7.41D-05 at cycle   7 NSaved=   7.
 NSaved= 7 IEnMin= 7 EnMin= -1092.85653046354     IErMin= 7 ErrMin= 7.41D-05
 ErrMax= 7.41D-05  0.00D+00 EMaxC= 1.00D-01 BMatC= 1.21D-05 BMatP= 3.62D-05
 IDIUse=1 WtCom= 1.00D+00 WtEn= 0.00D+00
 Coeff-Com:  0.267D-01-0.344D-01-0.840D-02-0.121D-01 0.478D-01 0.397D+00
 Coeff-Com:  0.583D+00
 Coeff:      0.267D-01-0.344D-01-0.840D-02-0.121D-01 0.478D-01 0.397D+00
 Coeff:      0.583D+00
 Gap=     0.139 Goal=   None    Shift=    0.000
 Gap=     0.061 Goal=   None    Shift=    0.000
 RMSDP=7.31D-06 MaxDP=6.01D-04 DE=-1.53D-05 OVMax= 3.75D-03

 Cycle   8  Pass 1  IDiag  1:
 RMSU=  4.50D-06    CP:  9.93D-01  3.00D+00  6.93D-01  8.58D-01  8.08D-01
                    CP:  1.32D+00  1.23D+00
 E= -1092.85653759004     Delta-E=       -0.000007126502 Rises=F Damp=F
 DIIS: error= 6.86D-05 at cycle   8 NSaved=   8.
 NSaved= 8 IEnMin= 8 EnMin= -1092.85653759004     IErMin= 8 ErrMin= 6.86D-05
 ErrMax= 6.86D-05  0.00D+00 EMaxC= 1.00D-01 BMatC= 2.50D-06 BMatP= 1.21D-05
 IDIUse=1 WtCom= 1.00D+00 WtEn= 0.00D+00
 Coeff-Com:  0.329D-02-0.361D-02-0.826D-02-0.306D-01-0.573D-01-0.481D-01
 Coeff-Com:  0.203D+00 0.941D+00
 Coeff:      0.329D-02-0.361D-02-0.826D-02-0.306D-01-0.573D-01-0.481D-01
 Coeff:      0.203D+00 0.941D+00
 Gap=     0.139 Goal=   None    Shift=    0.000
 Gap=     0.061 Goal=   None    Shift=    0.000
 RMSDP=8.19D-06 MaxDP=5.63D-04 DE=-7.13D-06 OVMax= 5.11D-03

 Cycle   9  Pass 1  IDiag  1:
 RMSU=  2.82D-06    CP:  9.93D-01  3.00D+00  6.95D-01  8.62D-01  8.36D-01
                    CP:  1.56D+00  1.70D+00  1.34D+00
 E= -1092.85654208782     Delta-E=       -0.000004497774 Rises=F Damp=F
 DIIS: error= 3.57D-05 at cycle   9 NSaved=   9.
 NSaved= 9 IEnMin= 9 EnMin= -1092.85654208782     IErMin= 9 ErrMin= 3.57D-05
 ErrMax= 3.57D-05  0.00D+00 EMaxC= 1.00D-01 BMatC= 1.75D-06 BMatP= 2.50D-06
 IDIUse=1 WtCom= 1.00D+00 WtEn= 0.00D+00
 Coeff-Com: -0.119D-01 0.156D-01-0.105D-02-0.160D-01-0.671D-01-0.248D+00
 Coeff-Com: -0.193D+00 0.695D+00 0.828D+00
 Coeff:     -0.119D-01 0.156D-01-0.105D-02-0.160D-01-0.671D-01-0.248D+00
 Coeff:     -0.193D+00 0.695D+00 0.828D+00
 Gap=     0.139 Goal=   None    Shift=    0.000
 Gap=     0.061 Goal=   None    Shift=    0.000
 RMSDP=7.40D-06 MaxDP=5.90D-04 DE=-4.50D-06 OVMax= 4.40D-03

 Cycle  10  Pass 1  IDiag  1:
 RMSU=  1.74D-06    CP:  9.93D-01  3.00D+00  6.95D-01  8.66D-01  8.65D-01
                    CP:  1.77D+00  2.13D+00  1.94D+00  1.39D+00
 E= -1092.85654446590     Delta-E=       -0.000002378082 Rises=F Damp=F
 DIIS: error= 1.04D-05 at cycle  10 NSaved=  10.
 NSaved=10 IEnMin=10 EnMin= -1092.85654446590     IErMin=10 ErrMin= 1.04D-05
 ErrMax= 1.04D-05  0.00D+00 EMaxC= 1.00D-01 BMatC= 2.06D-07 BMatP= 1.75D-06
 IDIUse=1 WtCom= 1.00D+00 WtEn= 0.00D+00
 Coeff-Com: -0.424D-02 0.547D-02 0.198D-02 0.438D-02-0.451D-02-0.767D-01
 Coeff-Com: -0.135D+00-0.485D-01 0.286D+00 0.972D+00
 Coeff:     -0.424D-02 0.547D-02 0.198D-02 0.438D-02-0.451D-02-0.767D-01
 Coeff:     -0.135D+00-0.485D-01 0.286D+00 0.972D+00
 Gap=     0.139 Goal=   None    Shift=    0.000
 Gap=     0.061 Goal=   None    Shift=    0.000
 RMSDP=3.62D-06 MaxDP=3.00D-04 DE=-2.38D-06 OVMax= 2.07D-03

 Cycle  11  Pass 1  IDiag  1:
 RMSU=  7.40D-07    CP:  9.93D-01  3.00D+00  6.96D-01  8.68D-01  8.76D-01
                    CP:  1.87D+00  2.33D+00  2.23D+00  1.78D+00  1.28D+00
 E= -1092.85654483229     Delta-E=       -0.000000366389 Rises=F Damp=F
 DIIS: error= 4.50D-06 at cycle  11 NSaved=  11.
 NSaved=11 IEnMin=11 EnMin= -1092.85654483229     IErMin=11 ErrMin= 4.50D-06
 ErrMax= 4.50D-06  0.00D+00 EMaxC= 1.00D-01 BMatC= 6.15D-08 BMatP= 2.06D-07
 IDIUse=1 WtCom= 1.00D+00 WtEn= 0.00D+00
 Coeff-Com: -0.253D-03 0.274D-03 0.117D-02 0.493D-02 0.902D-02 0.219D-02
 Coeff-Com: -0.270D-01-0.129D+00 0.240D-01 0.483D+00 0.632D+00
 Coeff:     -0.253D-03 0.274D-03 0.117D-02 0.493D-02 0.902D-02 0.219D-02
 Coeff:     -0.270D-01-0.129D+00 0.240D-01 0.483D+00 0.632D+00
 Gap=     0.139 Goal=   None    Shift=    0.000
 Gap=     0.061 Goal=   None    Shift=    0.000
 RMSDP=5.03D-07 MaxDP=4.94D-05 DE=-3.66D-07 OVMax= 1.75D-04

 Cycle  12  Pass 1  IDiag  1:
 RMSU=  3.65D-07    CP:  9.93D-01  3.00D+00  6.95D-01  8.68D-01  8.76D-01
                    CP:  1.87D+00  2.35D+00  2.25D+00  1.85D+00  1.37D+00
                    CP:  9.43D-01
 E= -1092.85654486308     Delta-E=       -0.000000030790 Rises=F Damp=F
 DIIS: error= 2.66D-06 at cycle  12 NSaved=  12.
 NSaved=12 IEnMin=12 EnMin= -1092.85654486308     IErMin=12 ErrMin= 2.66D-06
 ErrMax= 2.66D-06  0.00D+00 EMaxC= 1.00D-01 BMatC= 1.32D-08 BMatP= 6.15D-08
 IDIUse=1 WtCom= 1.00D+00 WtEn= 0.00D+00
 Coeff-Com:  0.790D-03-0.104D-02 0.156D-03 0.177D-02 0.608D-02 0.171D-01
 Coeff-Com:  0.144D-01-0.683D-01-0.486D-01 0.492D-01 0.292D+00 0.737D+00
 Coeff:      0.790D-03-0.104D-02 0.156D-03 0.177D-02 0.608D-02 0.171D-01
 Coeff:      0.144D-01-0.683D-01-0.486D-01 0.492D-01 0.292D+00 0.737D+00
 Gap=     0.139 Goal=   None    Shift=    0.000
 Gap=     0.061 Goal=   None    Shift=    0.000
 RMSDP=3.32D-07 MaxDP=3.35D-05 DE=-3.08D-08 OVMax= 8.83D-05

 Cycle  13  Pass 1  IDiag  1:
 RMSU=  1.85D-07    CP:  9.93D-01  3.00D+00  6.95D-01  8.68D-01  8.77D-01
                    CP:  1.87D+00  2.35D+00  2.27D+00  1.88D+00  1.44D+00
                    CP:  1.17D+00  1.22D+00
 E= -1092.85654487439     Delta-E=       -0.000000011316 Rises=F Damp=F
 DIIS: error= 1.49D-06 at cycle  13 NSaved=  13.
 NSaved=13 IEnMin=13 EnMin= -1092.85654487439     IErMin=13 ErrMin= 1.49D-06
 ErrMax= 1.49D-06  0.00D+00 EMaxC= 1.00D-01 BMatC= 5.33D-09 BMatP= 1.32D-08
 IDIUse=1 WtCom= 1.00D+00 WtEn= 0.00D+00
 Coeff-Com:  0.386D-03-0.489D-03-0.401D-03-0.120D-02-0.802D-03 0.665D-02
 Coeff-Com:  0.178D-01 0.190D-01-0.269D-01-0.155D+00-0.124D+00 0.408D+00
 Coeff-Com:  0.856D+00
 Coeff:      0.386D-03-0.489D-03-0.401D-03-0.120D-02-0.802D-03 0.665D-02
 Coeff:      0.178D-01 0.190D-01-0.269D-01-0.155D+00-0.124D+00 0.408D+00
 Coeff:      0.856D+00
 Gap=     0.139 Goal=   None    Shift=    0.000
 Gap=     0.061 Goal=   None    Shift=    0.000
 RMSDP=2.37D-07 MaxDP=2.42D-05 DE=-1.13D-08 OVMax= 8.10D-05

 Cycle  14  Pass 1  IDiag  1:
 RMSU=  9.68D-08    CP:  9.93D-01  3.00D+00  6.95D-01  8.68D-01  8.76D-01
                    CP:  1.87D+00  2.35D+00  2.26D+00  1.89D+00  1.47D+00
                    CP:  1.31D+00  1.66D+00  1.25D+00
 E= -1092.85654487963     Delta-E=       -0.000000005234 Rises=F Damp=F
 DIIS: error= 7.17D-07 at cycle  14 NSaved=  14.
 NSaved=14 IEnMin=14 EnMin= -1092.85654487963     IErMin=14 ErrMin= 7.17D-07
 ErrMax= 7.17D-07  0.00D+00 EMaxC= 1.00D-01 BMatC= 1.26D-09 BMatP= 5.33D-09
 IDIUse=1 WtCom= 1.00D+00 WtEn= 0.00D+00
 Coeff-Com: -0.231D-04 0.403D-04-0.245D-03-0.115D-02-0.216D-02-0.123D-02
 Coeff-Com:  0.494D-02 0.296D-01 0.901D-03-0.977D-01-0.164D+00 0.141D-01
 Coeff-Com:  0.432D+00 0.785D+00
 Coeff:     -0.231D-04 0.403D-04-0.245D-03-0.115D-02-0.216D-02-0.123D-02
 Coeff:      0.494D-02 0.296D-01 0.901D-03-0.977D-01-0.164D+00 0.141D-01
 Coeff:      0.432D+00 0.785D+00
 Gap=     0.139 Goal=   None    Shift=    0.000
 Gap=     0.061 Goal=   None    Shift=    0.000
 RMSDP=1.35D-07 MaxDP=1.48D-05 DE=-5.23D-09 OVMax= 3.74D-05

 Cycle  15  Pass 1  IDiag  1:
 RMSU=  5.36D-08    CP:  9.93D-01  3.00D+00  6.95D-01  8.68D-01  8.76D-01
                    CP:  1.87D+00  2.35D+00  2.26D+00  1.89D+00  1.48D+00
                    CP:  1.39D+00  1.89D+00  1.54D+00  1.15D+00
 E= -1092.85654488101     Delta-E=       -0.000000001381 Rises=F Damp=F
 DIIS: error= 5.05D-07 at cycle  15 NSaved=  15.
 NSaved=15 IEnMin=15 EnMin= -1092.85654488101     IErMin=15 ErrMin= 5.05D-07
 ErrMax= 5.05D-07  0.00D+00 EMaxC= 1.00D-01 BMatC= 4.11D-10 BMatP= 1.26D-09
 IDIUse=1 WtCom= 1.00D+00 WtEn= 0.00D+00
 Coeff-Com: -0.129D-03 0.169D-03-0.292D-04-0.358D-03-0.115D-02-0.297D-02
 Coeff-Com: -0.266D-02 0.119D-01 0.920D-02-0.114D-01-0.568D-01-0.911D-01
 Coeff-Com:  0.452D-02 0.433D+00 0.708D+00
 Coeff:     -0.129D-03 0.169D-03-0.292D-04-0.358D-03-0.115D-02-0.297D-02
 Coeff:     -0.266D-02 0.119D-01 0.920D-02-0.114D-01-0.568D-01-0.911D-01
 Coeff:      0.452D-02 0.433D+00 0.708D+00
 Gap=     0.139 Goal=   None    Shift=    0.000
 Gap=     0.061 Goal=   None    Shift=    0.000
 RMSDP=5.56D-08 MaxDP=6.79D-06 DE=-1.38D-09 OVMax= 2.06D-05

 Cycle  16  Pass 1  IDiag  1:
 RMSU=  2.49D-08    CP:  9.93D-01  3.00D+00  6.95D-01  8.68D-01  8.76D-01
                    CP:  1.87D+00  2.35D+00  2.26D+00  1.89D+00  1.49D+00
                    CP:  1.41D+00  1.97D+00  1.67D+00  1.41D+00  1.03D+00
 E= -1092.85654488124     Delta-E=       -0.000000000227 Rises=F Damp=F
 DIIS: error= 2.17D-07 at cycle  16 NSaved=  16.
 NSaved=16 IEnMin=16 EnMin= -1092.85654488124     IErMin=16 ErrMin= 2.17D-07
 ErrMax= 2.17D-07  0.00D+00 EMaxC= 1.00D-01 BMatC= 9.16D-11 BMatP= 4.11D-10
 IDIUse=1 WtCom= 1.00D+00 WtEn= 0.00D+00
 Coeff-Com: -0.443D-04 0.563D-04 0.471D-04 0.101D-03-0.112D-04-0.999D-03
 Coeff-Com: -0.226D-02-0.103D-02 0.356D-02 0.147D-01 0.799D-02-0.474D-01
 Coeff-Com: -0.902D-01 0.371D-01 0.348D+00 0.731D+00
 Coeff:     -0.443D-04 0.563D-04 0.471D-04 0.101D-03-0.112D-04-0.999D-03
 Coeff:     -0.226D-02-0.103D-02 0.356D-02 0.147D-01 0.799D-02-0.474D-01
 Coeff:     -0.902D-01 0.371D-01 0.348D+00 0.731D+00
 Gap=     0.139 Goal=   None    Shift=    0.000
 Gap=     0.061 Goal=   None    Shift=    0.000
 RMSDP=2.65D-08 MaxDP=3.48D-06 DE=-2.27D-10 OVMax= 8.61D-06

 Cycle  17  Pass 1  IDiag  1:
 RMSU=  1.37D-08    CP:  9.93D-01  3.00D+00  6.95D-01  8.68D-01  8.76D-01
                    CP:  1.87D+00  2.35D+00  2.26D+00  1.89D+00  1.49D+00
                    CP:  1.42D+00  1.99D+00  1.72D+00  1.52D+00  1.25D+00
                    CP:  1.15D+00
 E= -1092.85654488130     Delta-E=       -0.000000000068 Rises=F Damp=F
 DIIS: error= 1.54D-07 at cycle  17 NSaved=  17.
 NSaved=17 IEnMin=17 EnMin= -1092.85654488130     IErMin=17 ErrMin= 1.54D-07
 ErrMax= 1.54D-07  0.00D+00 EMaxC= 1.00D-01 BMatC= 2.95D-11 BMatP= 9.16D-11
 IDIUse=1 WtCom= 1.00D+00 WtEn= 0.00D+00
 Coeff-Com:  0.250D-04-0.336D-04 0.351D-04 0.188D-03 0.427D-03 0.468D-03
 Coeff-Com: -0.233D-03-0.520D-02-0.137D-02 0.137D-01 0.276D-01 0.874D-02
 Coeff-Com: -0.476D-01-0.154D+00-0.732D-01 0.390D+00 0.840D+00
 Coeff:      0.250D-04-0.336D-04 0.351D-04 0.188D-03 0.427D-03 0.468D-03
 Coeff:     -0.233D-03-0.520D-02-0.137D-02 0.137D-01 0.276D-01 0.874D-02
 Coeff:     -0.476D-01-0.154D+00-0.732D-01 0.390D+00 0.840D+00
 Gap=     0.139 Goal=   None    Shift=    0.000
 Gap=     0.061 Goal=   None    Shift=    0.000
 RMSDP=1.75D-08 MaxDP=2.24D-06 DE=-6.78D-11 OVMax= 6.29D-06

 Cycle  18  Pass 1  IDiag  1:
 RMSU=  7.62D-09    CP:  9.93D-01  3.00D+00  6.95D-01  8.68D-01  8.76D-01
                    CP:  1.87D+00  2.35D+00  2.26D+00  1.89D+00  1.49D+00
                    CP:  1.42D+00  2.00D+00  1.74D+00  1.58D+00  1.39D+00
                    CP:  1.55D+00  1.20D+00
 E= -1092.85654488135     Delta-E=       -0.000000000047 Rises=F Damp=F
 DIIS: error= 6.30D-08 at cycle  18 NSaved=  18.
 NSaved=18 IEnMin=18 EnMin= -1092.85654488135     IErMin=18 ErrMin= 6.30D-08
 ErrMax= 6.30D-08  0.00D+00 EMaxC= 1.00D-01 BMatC= 6.49D-12 BMatP= 2.95D-11
 IDIUse=1 WtCom= 1.00D+00 WtEn= 0.00D+00
 Coeff-Com:  0.168D-04-0.220D-04 0.103D-05 0.431D-04 0.167D-03 0.370D-03
 Coeff-Com:  0.584D-03-0.181D-02-0.130D-02 0.125D-02 0.704D-02 0.126D-01
 Coeff-Com:  0.740D-02-0.645D-01-0.952D-01-0.328D-01 0.296D+00 0.870D+00
 Coeff:      0.168D-04-0.220D-04 0.103D-05 0.431D-04 0.167D-03 0.370D-03
 Coeff:      0.584D-03-0.181D-02-0.130D-02 0.125D-02 0.704D-02 0.126D-01
 Coeff:      0.740D-02-0.645D-01-0.952D-01-0.328D-01 0.296D+00 0.870D+00
 Gap=     0.139 Goal=   None    Shift=    0.000
 Gap=     0.061 Goal=   None    Shift=    0.000
 RMSDP=8.79D-09 MaxDP=1.01D-06 DE=-4.68D-11 OVMax= 3.17D-06

 Cycle  19  Pass 1  IDiag  1:
 RMSU=  3.72D-09    CP:  9.93D-01  3.00D+00  6.95D-01  8.68D-01  8.76D-01
                    CP:  1.87D+00  2.35D+00  2.26D+00  1.89D+00  1.49D+00
                    CP:  1.43D+00  2.01D+00  1.75D+00  1.60D+00  1.45D+00
                    CP:  1.72D+00  1.51D+00  1.23D+00
 E= -1092.85654488132     Delta-E=        0.000000000032 Rises=F Damp=F
 DIIS: error= 5.05D-08 at cycle  19 NSaved=  19.
 NSaved=19 IEnMin=18 EnMin= -1092.85654488135     IErMin=19 ErrMin= 5.05D-08
 ErrMax= 5.05D-08  0.00D+00 EMaxC= 1.00D-01 BMatC= 3.25D-12 BMatP= 6.49D-12
 IDIUse=1 WtCom= 1.00D+00 WtEn= 0.00D+00
 Coeff-Com:  0.144D-05-0.167D-05-0.107D-04-0.337D-04-0.271D-04 0.707D-04
 Coeff-Com:  0.509D-03 0.449D-03-0.287D-03-0.346D-02-0.429D-02 0.521D-02
 Coeff-Com:  0.204D-01 0.613D-02-0.359D-01-0.148D+00-0.858D-01 0.554D+00
 Coeff-Com:  0.690D+00
 Coeff:      0.144D-05-0.167D-05-0.107D-04-0.337D-04-0.271D-04 0.707D-04
 Coeff:      0.509D-03 0.449D-03-0.287D-03-0.346D-02-0.429D-02 0.521D-02
 Coeff:      0.204D-01 0.613D-02-0.359D-01-0.148D+00-0.858D-01 0.554D+00
 Coeff:      0.690D+00
 Gap=     0.139 Goal=   None    Shift=    0.000
 Gap=     0.061 Goal=   None    Shift=    0.000
 RMSDP=5.07D-09 MaxDP=6.01D-07 DE= 3.18D-11 OVMax= 1.73D-06

 Error on total polarization charges =  0.03844
 SCF Done:  E(UB3LYP) =  -1092.85654488     A.U. after   19 cycles
            NFock= 19  Conv=0.51D-08     -V/T= 2.0098
 <Sx>= 0.0000 <Sy>= 0.0000 <Sz>= 0.5000 <S**2>= 0.7641 S= 0.5070
 <L.S>= 0.000000000000E+00
 KE= 1.082259809255D+03 PE=-6.910157957977D+03 EE= 2.535874459816D+03
 Annihilation of the first spin contaminant:
 S**2 before annihilation     0.7641,   after     0.7501
 Leave Link  502 at Sun Dec 16 15:19:52 2018, MaxMem=  1342177280 cpu:            3437.8 elap:             218.6
 (Enter /gpfs/apps/hpc/Apps/Restricted/Gaussian/Rev_A.03/g16/l801.exe)
 DoSCS=F DFT=T ScalE2(SS,OS)=  1.000000  1.000000
 Range of M.O.s used for correlation:     1   515
 NBasis=   515 NAE=    93 NBE=    92 NFC=     0 NFV=     0
 NROrb=    515 NOA=    93 NOB=    92 NVA=   422 NVB=   423

 **** Warning!!: The smallest beta delta epsilon is  0.60612589D-01

 Leave Link  801 at Sun Dec 16 15:19:52 2018, MaxMem=  1342177280 cpu:               0.6 elap:               0.1
 (Enter /gpfs/apps/hpc/Apps/Restricted/Gaussian/Rev_A.03/g16/l1101.exe)
 Using compressed storage, NAtomX=    51.
 Will process     52 centers per pass.
 R6Disp: Adding Grimme-D3(BJ) dispersion energy 1st derivatives to the gradient.
 Leave Link 1101 at Sun Dec 16 15:19:54 2018, MaxMem=  1342177280 cpu:              17.8 elap:               1.4
 (Enter /gpfs/apps/hpc/Apps/Restricted/Gaussian/Rev_A.03/g16/l1102.exe)
 Symmetrizing basis deriv contribution to polar:
 IMax=3 JMax=2 DiffMx= 0.00D+00
 Leave Link 1102 at Sun Dec 16 15:19:54 2018, MaxMem=  1342177280 cpu:               1.3 elap:               0.1
 (Enter /gpfs/apps/hpc/Apps/Restricted/Gaussian/Rev_A.03/g16/l1110.exe)
 Forming Gx(P) for the SCF density, NAtomX=    51.
 Integral derivatives from FoFJK, PRISM(SPDF).
 Do as many integral derivatives as possible in FoFJK.
 G2DrvN: MDV=    1342173472.
 G2DrvN: will do    52 centers at a time, making    1 passes.
 Calling FoFCou, ICntrl=  3107 FMM=F I1Cent=   0 AccDes= 0.00D+00.
 FoFJK:  IHMeth= 1 ICntrl=    3107 DoSepK=F KAlg= 0 I1Cent=           0 FoldK=F
 IRaf=         0 NMat=       1 IRICut=       1 DoRegI=T DoRafI=F ISym2E= 0 IDoP0=0 IntGTp=1.
 FoFCou: FMM=F IPFlag=           0 FMFlag=      100000 FMFlg1=           0
         NFxFlg=           0 DoJE=F BraDBF=F KetDBF=F FulRan=T
         wScrn=  0.000000 ICntrl=      3107 IOpCl=  1 I1Cent=           0 NGrid=           0
         NMat0=    1 NMatS0=      1 NMatT0=    0 NMatD0=    1 NMtDS0=    0 NMtDT0=    0
 Symmetry not used in FoFCou.
 NEqPCM:  Using equilibrium solvation (IEInf=0, Eps=   8.9300, EpsInf=   2.0283)
 G2PCM: DoFxE=T DoFxN=T DoGrad=T DoDP/DQ/DG/TGxP=FFFF NFrqRd=   0 IEInf=0 SqF1=F DoCFld=F IF1Alg=4.
 GePol: Maximum number of non-zero 1st derivatives   =     219
 End of G2Drv F.D. properties file   721 does not exist.
 End of G2Drv F.D. properties file   722 does not exist.
 End of G2Drv F.D. properties file   788 does not exist.
 Leave Link 1110 at Sun Dec 16 15:28:59 2018, MaxMem=  1342177280 cpu:            8699.6 elap:             544.4
 (Enter /gpfs/apps/hpc/Apps/Restricted/Gaussian/Rev_A.03/g16/l1002.exe)
 Minotr:  UHF open shell wavefunction.
          IDoAtm=11111111111111111111111111111111111111111111111111
          IDoAtm=1
 NEqPCM:  Using equilibrium solvation (IEInf=0, Eps=   8.9300, EpsInf=   2.0283)
          Direct CPHF calculation.
          Differentiating once with respect to nuclear coordinates.
          Requested convergence is 1.0D-08 RMS, and 1.0D-07 maximum.
          Secondary convergence is 1.0D-12 RMS, and 1.0D-12 maximum.
          NewPWx=T KeepS1=F KeepF1=F KeepIn=T MapXYZ=F SortEE=F KeepMc=T.
        15521 words used for storage of precomputed grid.
 Two-electron integral symmetry not used.
          MDV=    1342177280 using IRadAn=       1.
          Solving linear equations simultaneously, MaxMat=     384.
 FoF2E skips out because all densities are zero.
 CalDSu exits because no D1Ps are significant.
 FoFJK:  IHMeth= 1 ICntrl=       0 DoSepK=F KAlg= 0 I1Cent=           0 FoldK=F
 IRaf= 560000000 NMat=      80 IRICut=     200 DoRegI=T DoRafI=T ISym2E= 0 IDoP0=0 IntGTp=1.
          There are   156 degrees of freedom in the 1st order CPHF.  IDoFFX=6 NUNeed=     0.
    150 vectors produced by pass  0 Test12= 7.82D-14 1.00D-09 XBig12= 4.33D-01 2.38D-01.
 AX will form    80 AO Fock derivatives at one time.
    150 vectors produced by pass  1 Test12= 7.82D-14 1.00D-09 XBig12= 1.52D-01 5.96D-02.
    150 vectors produced by pass  2 Test12= 7.82D-14 1.00D-09 XBig12= 1.75D-03 1.22D-02.
    150 vectors produced by pass  3 Test12= 7.82D-14 1.00D-09 XBig12= 1.55D-05 7.81D-04.
    150 vectors produced by pass  4 Test12= 7.82D-14 1.00D-09 XBig12= 8.57D-08 3.88D-05.
    137 vectors produced by pass  5 Test12= 7.82D-14 1.00D-09 XBig12= 4.44D-10 1.49D-06.
     79 vectors produced by pass  6 Test12= 7.82D-14 1.00D-09 XBig12= 1.76D-12 8.02D-08.
     17 vectors produced by pass  7 Test12= 7.82D-14 1.00D-09 XBig12= 5.78D-15 5.41D-09.
 InvSVY:  IOpt=1 It=  1 EMax= 1.61D-15
 Solved reduced A of dimension   983 with   156 vectors.
 End of Minotr F.D. properties file   721 does not exist.
 End of Minotr F.D. properties file   722 does not exist.
 End of Minotr F.D. properties file   788 does not exist.
 Leave Link 1002 at Sun Dec 16 15:47:31 2018, MaxMem=  1342177280 cpu:           17768.9 elap:            1111.9
 (Enter /gpfs/apps/hpc/Apps/Restricted/Gaussian/Rev_A.03/g16/l601.exe)
 Copying SCF densities to generalized density rwf, IOpCl= 1 IROHF=0.

 **********************************************************************

            Population analysis using the SCF density.

 **********************************************************************

 Alpha  occ. eigenvalues --  -19.21317 -14.39988 -14.38057 -14.37951 -10.31381
 Alpha  occ. eigenvalues --  -10.29969 -10.28161 -10.25568 -10.25250 -10.25006
 Alpha  occ. eigenvalues --  -10.24861 -10.23796 -10.23765 -10.22788 -10.22651
 Alpha  occ. eigenvalues --  -10.22538 -10.22485 -10.22429 -10.21704 -10.20003
 Alpha  occ. eigenvalues --  -10.19741 -10.19383 -10.19370 -10.18701 -10.18678
 Alpha  occ. eigenvalues --  -10.18321  -1.10831  -1.03085  -0.99000  -0.90459
 Alpha  occ. eigenvalues --   -0.89905  -0.87440  -0.84017  -0.82514  -0.81042
 Alpha  occ. eigenvalues --   -0.79122  -0.75733  -0.75222  -0.74559  -0.71792
 Alpha  occ. eigenvalues --   -0.70489  -0.68786  -0.67497  -0.64826  -0.62247
 Alpha  occ. eigenvalues --   -0.62111  -0.61488  -0.60498  -0.60126  -0.57207
 Alpha  occ. eigenvalues --   -0.56537  -0.53605  -0.52753  -0.51610  -0.50891
 Alpha  occ. eigenvalues --   -0.50538  -0.49873  -0.48602  -0.47429  -0.47291
 Alpha  occ. eigenvalues --   -0.46412  -0.45415  -0.45138  -0.44763  -0.44195
 Alpha  occ. eigenvalues --   -0.43985  -0.43844  -0.43220  -0.42748  -0.41911
 Alpha  occ. eigenvalues --   -0.41774  -0.41338  -0.40547  -0.39782  -0.39008
 Alpha  occ. eigenvalues --   -0.38920  -0.38515  -0.38415  -0.37437  -0.36542
 Alpha  occ. eigenvalues --   -0.35513  -0.35305  -0.35142  -0.33587  -0.33171
 Alpha  occ. eigenvalues --   -0.32879  -0.32172  -0.30789  -0.30532  -0.30268
 Alpha  occ. eigenvalues --   -0.26206  -0.25629  -0.23587
 Alpha virt. eigenvalues --   -0.09703  -0.06221  -0.03473  -0.00635   0.00794
 Alpha virt. eigenvalues --    0.03343   0.07222   0.08055   0.09148   0.09525
 Alpha virt. eigenvalues --    0.09940   0.10977   0.11710   0.11939   0.12400
 Alpha virt. eigenvalues --    0.12539   0.12707   0.13728   0.14379   0.15215
 Alpha virt. eigenvalues --    0.15307   0.15448   0.16149   0.16258   0.16865
 Alpha virt. eigenvalues --    0.16894   0.16980   0.17176   0.17723   0.18070
 Alpha virt. eigenvalues --    0.18127   0.18531   0.18790   0.19446   0.20350
 Alpha virt. eigenvalues --    0.21803   0.21869   0.22648   0.23134   0.23405
 Alpha virt. eigenvalues --    0.23966   0.24518   0.24774   0.25239   0.27131
 Alpha virt. eigenvalues --    0.27516   0.28050   0.29057   0.30239   0.30785
 Alpha virt. eigenvalues --    0.32048   0.32741   0.34052   0.35471   0.37218
 Alpha virt. eigenvalues --    0.38441   0.40032   0.41292   0.43262   0.45716
 Alpha virt. eigenvalues --    0.47013   0.47234   0.47777   0.48116   0.49656
 Alpha virt. eigenvalues --    0.49758   0.50001   0.50791   0.51296   0.51806
 Alpha virt. eigenvalues --    0.52044   0.52294   0.52649   0.52679   0.52975
 Alpha virt. eigenvalues --    0.53363   0.53609   0.54877   0.55365   0.55630
 Alpha virt. eigenvalues --    0.56201   0.56301   0.56523   0.57669   0.58596
 Alpha virt. eigenvalues --    0.58634   0.60018   0.60688   0.61003   0.61253
 Alpha virt. eigenvalues --    0.61536   0.61995   0.62351   0.63259   0.63424
 Alpha virt. eigenvalues --    0.64593   0.65419   0.65472   0.66798   0.67564
 Alpha virt. eigenvalues --    0.68839   0.69310   0.69879   0.70280   0.71030
 Alpha virt. eigenvalues --    0.71716   0.73323   0.74283   0.74402   0.74843
 Alpha virt. eigenvalues --    0.75140   0.75950   0.76630   0.77519   0.78144
 Alpha virt. eigenvalues --    0.79593   0.79876   0.80055   0.80248   0.81407
 Alpha virt. eigenvalues --    0.82258   0.82895   0.84126   0.84324   0.84732
 Alpha virt. eigenvalues --    0.85225   0.85593   0.86038   0.86494   0.87065
 Alpha virt. eigenvalues --    0.87890   0.88490   0.88567   0.89727   0.90052
 Alpha virt. eigenvalues --    0.90686   0.90788   0.91082   0.92078   0.92275
 Alpha virt. eigenvalues --    0.92551   0.93641   0.93762   0.94554   0.95013
 Alpha virt. eigenvalues --    0.96143   0.96498   0.97262   0.97639   0.97881
 Alpha virt. eigenvalues --    0.99670   1.04380   1.04900   1.05791   1.08199
 Alpha virt. eigenvalues --    1.08308   1.08714   1.09834   1.10532   1.11772
 Alpha virt. eigenvalues --    1.14027   1.14350   1.17539   1.18845   1.19164
 Alpha virt. eigenvalues --    1.19480   1.20148   1.22663   1.23843   1.24521
 Alpha virt. eigenvalues --    1.25363   1.25599   1.26306   1.26711   1.26855
 Alpha virt. eigenvalues --    1.27604   1.28038   1.28718   1.31717   1.34299
 Alpha virt. eigenvalues --    1.34770   1.35443   1.35588   1.36161   1.36835
 Alpha virt. eigenvalues --    1.37517   1.38557   1.39237   1.39668   1.39915
 Alpha virt. eigenvalues --    1.42266   1.44101   1.45363   1.46391   1.47683
 Alpha virt. eigenvalues --    1.49020   1.50594   1.53101   1.55300   1.55577
 Alpha virt. eigenvalues --    1.56440   1.59790   1.60111   1.60156   1.61916
 Alpha virt. eigenvalues --    1.62549   1.64007   1.67812   1.68053   1.69199
 Alpha virt. eigenvalues --    1.69763   1.70443   1.71005   1.72615   1.73437
 Alpha virt. eigenvalues --    1.74148   1.74369   1.75832   1.76192   1.76625
 Alpha virt. eigenvalues --    1.77644   1.79465   1.79925   1.80413   1.81891
 Alpha virt. eigenvalues --    1.82977   1.83504   1.83669   1.84595   1.84963
 Alpha virt. eigenvalues --    1.85815   1.86554   1.87781   1.88084   1.89486
 Alpha virt. eigenvalues --    1.89794   1.90501   1.91034   1.91247   1.92058
 Alpha virt. eigenvalues --    1.92902   1.93819   1.94614   1.95099   1.95974
 Alpha virt. eigenvalues --    1.96428   1.97949   1.98456   1.99486   2.00308
 Alpha virt. eigenvalues --    2.02734   2.03051   2.03351   2.03866   2.04213
 Alpha virt. eigenvalues --    2.07699   2.08208   2.08322   2.09264   2.10300
[...]
 .03771181,-0.28974689,0.04607419,0.00135725,0.00098932,-0.00003516,0.0
 0036517,0.00051363,-0.00021837,0.00038984,-0.00851577,0.00171634,-0.00
 007102,0.00027100,0.00010801,0.00008446,0.00079110,0.00055231,0.002488
 69,-0.01597730,0.00302794,-0.04186270,0.31475303,-0.00000312,-0.000017
 59,-0.00000052,0.00000245,0.00000223,0.00000291,0.00000272,-0.00001613
 ,0.00000039,0.00002428,0.00001212,0.00000065,-0.00002093,0.00003101,0.
 00000112,0.00005437,-0.00003031,-0.00002509,-0.00000757,0.00000810,0.0
 0000060,0.00000026,0.00000004,-0.00000039,0.00000159,-0.00000105,0.000
 00005,-0.00000120,0.00000004,-0.00000092,0.00000909,-0.00000623,0.,-0.
 00000683,0.00000809,-0.00000015,0.00000717,-0.00000787,0.00000052,-0.0
 0000432,0.00001473,-0.00000041,-0.00000232,-0.00000970,0.00000055,-0.0
 0000073,-0.00000109,-0.00000004,-0.00000242,-0.00000617,0.00000022,-0.
 00000022,-0.00000006,0.00000126,0.00000018,0.00000060,0.00000007,-0.00
 000037,0.00000176,-0.00000001,-0.00000067,0.00000004,0.00000019,-0.000
 00014,0.00000015,0.00000071,-0.00000033,0.00000045,-0.00000006,0.00000
 070,-0.00000063,0.00000018,0.00000054,0.00000025,-0.00000009,0.0000005
 0,0.00000032,0.00000003,0.00000031,0.00000042,0.,0.00000863,-0.0000058
 7,0.00000009,0.00000577,0.00001165,-0.00000237,-0.00001924,-0.00000857
 ,-0.00001270,-0.00007026,-0.00001558,-0.00001139,0.00001125,0.00000528
 ,0.00002517,-0.00003867,-0.00009488,0.00002908,-0.00005411,0.00087357,
 0.00010540,0.00004387,-0.00014450,-0.00011968,-0.00032410,0.00107065,-
 0.00109698,-0.00019909,0.00013211,-0.00003328,-0.00027209,0.00111120,0
 .00167306,0.00006711,-0.00008565,0.00005088,-0.00007766,-0.00000687,-0
 .00001082,-0.00821283,0.04503315,-0.05868251,0.00004409,0.00016157,0.0
 0103267,-0.00037248,-0.00044126,0.00034926,-0.00383254,0.02878268,-0.0
 0693850,0.00019307,-0.00028226,0.00025211,0.00004322,-0.00046666,-0.00
 004910,0.00444189,-0.02351038,0.00528609,0.00619866,-0.05300370,0.0616
 7002,0.00002323,0.00005311,-0.00000110,-0.00001458,-0.00002842,0.00000
 019,-0.00000665,0.00007815,-0.00000323,-0.00011704,-0.00005467,0.00000
 017,0.00010748,-0.00013060,0.00000680,-0.00020501,0.00010430,-0.000013
 94,0.00002512,-0.00004608,0.00000173,-0.00000074,-0.00000030,0.0000000
 9,-0.00000561,0.00000335,-0.00000030,0.00000541,-0.00000238,0.00000013
 ,-0.00004574,0.00003573,-0.00000188,0.00002969,-0.00003673,0.00000174,
 -0.00004063,0.00005643,-0.00000232,0.00002505,-0.00009340,0.00000301,0
 .00001248,0.00006515,-0.00000192,0.00000762,0.00000576,-0.00000014,0.0
 0001178,0.00003239,-0.00000078,0.00000079,0.00000217,-0.00000013,-0.00
 000121,-0.00000304,0.00000012,-0.00000078,-0.00001450,0.00000156,0.000
 00441,-0.00000050,-0.00000081,0.00000113,0.00000042,-0.00000024,0.0000
 0443,-0.00000066,0.00000035,-0.00000311,0.00000299,-0.00000075,-0.0000
 0210,-0.00000112,0.00000028,-0.00000234,-0.00000121,-0.00000002,-0.000
 00155,-0.00000220,0.00000020,-0.00003854,0.00002576,-0.00000148,-0.000
 02974,-0.00004229,0.00000227,0.00000227,0.00007221,-0.00000967,0.00028
 758,-0.00026630,0.00002077,0.00003543,-0.00003362,0.00000835,-0.000172
 61,0.00021375,-0.00002970,0.00083324,0.00034741,0.00001852,0.00074569,
 -0.00214927,-0.00255964,0.00051402,-0.00142939,0.00335341,-0.00005754,
 -0.00004312,-0.00000130,-0.01212996,0.00307958,-0.00035631,0.00013121,
 0.00009160,0.00006387,-0.00102054,0.00013943,0.00007856,-0.01283022,0.
 00317318,-0.00087693,0.00016289,0.00007220,-0.00007290,-0.00111270,0.0
 0010343,-0.00018225,-0.29790152,0.05672983,-0.01430187,0.00019375,0.00
 009889,-0.00020310,0.00042844,-0.00024452,0.00030257,0.00055662,0.0000
 7958,0.00010948,0.00072766,-0.00043467,-0.00026417,0.32246051,0.000006
 25,0.00002186,-0.00000015,-0.00000266,-0.00000650,0.00000027,-0.000002
 47,0.00002383,-0.00000105,-0.00003561,-0.00001552,0.00000082,0.0000297
 1,-0.00004404,0.00000173,-0.00007000,0.00004027,-0.00001155,0.00000746
 ,-0.00001081,0.00000074,-0.00000010,0.,-0.00000018,-0.00000216,0.00000
 110,-0.00000006,0.00000117,0.00000067,-0.00000025,-0.00001178,0.000009
 07,-0.00000059,0.00000683,-0.00000905,0.00000035,-0.00001007,0.0000144
 7,-0.00000053,0.00000555,-0.00002414,0.00000088,0.00000279,0.00001660,
 -0.00000050,0.00000238,0.00000113,-0.00000001,0.00000246,0.00000795,-0
 .00000022,0.00000011,0.00000052,-0.00000019,-0.00000030,-0.00000067,0.
 ,-0.00000066,-0.00000409,0.00000049,0.00000121,-0.00000007,-0.00000005
 ,0.00000028,0.00000009,-0.00000017,0.00000113,-0.00000024,-0.00000006,
 -0.00000067,0.00000056,-0.00000016,-0.00000045,-0.00000026,0.00000002,
 -0.00000048,-0.00000029,0.00000004,-0.00000039,-0.00000043,0.00000003,
 -0.00000866,0.00000618,-0.00000024,-0.00000923,-0.00001790,0.00000095,
 0.00000352,0.00002013,-0.00000702,0.00010028,-0.00011111,0.00001392,0.
 00000088,-0.00001394,0.00000381,-0.00006577,0.00012898,0.00004321,0.00
 048742,0.00000181,-0.00012508,-0.00083537,-0.00125012,-0.00264350,-0.0
 0052787,0.00021907,0.00132190,-0.00003308,-0.00004354,0.00001831,-0.01
 730317,0.00296391,-0.00083304,-0.00027255,0.00026566,-0.00005149,-0.00
 089894,0.00027006,-0.00016470,-0.00953483,0.00092289,-0.00038309,-0.00
 034508,0.00025816,-0.00004863,-0.00033513,0.00030791,0.00005483,0.0583
 9542,-0.06135759,0.00391527,0.00050003,0.00036582,0.00049331,0.0003125
 4,0.00075707,0.00091078,0.00028505,0.00011857,-0.00022780,-0.00023335,
 0.00071111,-0.00074849,-0.06074770,0.06150711,0.00000046,0.00000125,0.
 00000091,0.00000046,0.00000166,0.00000181,-0.00000029,0.00000037,-0.00
 000047,-0.00000033,-0.00000082,0.00000376,0.00000041,-0.00000060,0.000
 00017,-0.00000305,0.00000586,-0.00003650,0.00000085,-0.00000057,0.0000
 0192,0.00000006,-0.00000008,-0.00000118,0.00000010,0.00000005,0.,-0.00
 000015,0.00000010,-0.00000167,0.00000150,-0.00000010,-0.00000045,0.000
 00020,0.,-0.00000038,0.00000046,-0.00000099,0.00000041,0.00000001,0.00
 000115,0.00000061,-0.00000011,-0.00000069,-0.00000005,-0.00000016,0.,0
 .00000004,0.00000007,-0.00000015,-0.00000008,0.00000007,-0.00000002,-0
 .00000116,0.,0.,-0.00000010,0.00000021,0.00000027,0.00000025,0.0000000
 4,0.00000023,-0.00000001,-0.00000011,0.,-0.00000036,-0.00000019,-0.000
 00023,0.00000009,-0.00000001,0.00000003,-0.00000002,-0.00000010,0.,0.0
 0000003,0.00000007,-0.00000001,0.,0.,-0.00000002,-0.00000003,-0.000000
 08,0.00000023,0.00000055,0.00000351,0.00000168,0.00000011,0.00000962,-
 0.00001170,-0.00001475,-0.00000752,-0.00000830,0.00000488,-0.00000926,
 0.00001029,-0.00000730,0.00001819,0.00007683,0.00042790,-0.00002195,-0
 .00014487,-0.00097117,-0.00113912,-0.00365023,-0.00419498,0.00165593,0
 .00225599,-0.00546267,0.00000103,0.00002310,0.00009875,-0.02596782,0.0
 0698581,-0.00145102,0.00034769,0.00002048,0.00001310,-0.00190511,-0.00
 003144,0.00001680,0.02949699,-0.00741464,0.00241353,-0.00027008,-0.000
 08452,-0.00000046,0.00203076,-0.00004093,0.00009747,-0.01475029,0.0038
 7198,-0.04753688,0.00064104,0.00083303,0.00080254,0.00068809,0.0001452
 3,0.00101121,-0.00064219,-0.00054171,0.00096869,-0.00072878,-0.0000053
 8,0.00129549,0.01507520,-0.00308985,0.05323889,-0.00000210,-0.00000402
 ,-0.00000003,0.00000304,0.00000652,-0.00000015,0.00000024,-0.00001048,
 0.00000043,0.00001570,0.00000792,-0.00000010,-0.00001560,0.00001350,-0
 .00000056,0.00001875,0.00000067,0.00000114,-0.00000229,0.00000893,-0.0
 0000036,0.00000015,0.00000016,0.00000001,0.00000037,-0.00000031,0.0000
 0004,-0.00000147,0.00000085,-0.00000001,0.00000655,-0.00000581,0.00000
 030,-0.00000453,0.00000567,-0.00000026,0.00000707,-0.00001030,0.000000
 41,-0.00000425,0.00001614,-0.00000054,-0.00000219,-0.00001125,0.000000
 34,-0.00000124,-0.00000101,0.00000003,-0.00000197,-0.00000538,0.000000
 13,-0.00000003,-0.00000034,0.00000013,0.00000020,0.00000051,-0.0000000
 2,0.00000028,0.00000254,-0.00000028,-0.00000080,0.00000008,0.00000011,
 -0.00000032,-0.00000005,0.00000005,-0.00000080,0.00000013,-0.00000003,
 0.00000053,-0.00000050,0.00000013,0.00000034,0.00000017,-0.00000004,0.
 00000038,0.00000019,0.,0.00000025,0.00000037,-0.00000003,0.00000619,-0
 .00000410,0.00000022,0.00000228,0.00000101,-0.00000016,-0.00000855,-0.
 00000012,0.00000068,-0.00003377,-0.00000089,-0.00000294,0.00000310,0.0
 0000623,-0.00000172,-0.00000644,-0.00001653,-0.00000095,-0.00006693,0.
 00002262,0.00000301,0.00090753,-0.00092781,0.00047639,0.00091394,-0.00
 103010,-0.00016849,0.00002108,0.00014542,-0.00001882,0.00029264,-0.013
 91724,0.00164590,-0.00028396,-0.00017403,-0.00002385,0.00016191,0.0001
 6973,-0.00000234,0.00041378,-0.01517938,0.00267643,-0.00008275,-0.0002
 1224,-0.00000093,0.00017509,0.00017517,-0.00003645,-0.05321842,0.02354
 798,-0.00345156,0.00019396,0.00040032,0.00035337,-0.00026882,-0.001639
 94,-0.00205947,0.00044887,0.00050382,-0.00044127,-0.00056111,-0.001063
 70,0.00262903,-0.00160624,0.03113403,-0.00452634,0.05258146,0.00000364
 ,0.00002291,-0.00000046,-0.00000107,0.00000216,-0.00000017,-0.00000253
 ,0.00001474,-0.00000065,-0.00002469,-0.00001022,0.00000027,0.00001971,
 -0.00004261,0.00000129,-0.00007362,0.00004393,-0.00000725,0.00001407,0
 .00000330,0.00000013,-0.00000056,0.00000012,-0.00000002,-0.00000301,0.
 00000187,-0.00000003,0.00000230,0.00000269,0.00000001,-0.00001442,0.00
 000342,-0.00000052,0.00000744,-0.00000809,0.00000047,-0.00000319,-0.00
 000009,0.00000003,0.00000256,-0.00000446,0.00000010,0.00000266,0.00000
 245,-0.00000003,-0.00000079,0.00000084,-0.00000004,0.00000252,0.000004
 28,-0.00000010,0.00000059,-0.00000012,0.00000013,0.00000008,-0.0000004
 3,0.00000005,0.00000127,0.00000085,-0.00000008,0.00000001,-0.00000010,
 -0.00000029,-0.00000065,-0.00000035,0.00000009,0.00000010,0.00000001,0
 .00000028,-0.00000058,0.00000058,-0.00000014,-0.00000049,-0.00000029,0
 .00000023,-0.00000055,-0.00000033,-0.00000019,-0.00000022,-0.00000035,
 0.00000004,-0.00000892,0.00000472,-0.00000037,-0.00001882,-0.00002312,
 0.00000032,-0.00001351,0.00003195,-0.00000119,0.00008225,-0.00015289,0
 .00000863,0.00000829,-0.00001024,0.00000369,-0.00018225,0.00005902,0.0
 0001694,0.00014139,0.00025312,-0.00007150,0.00074235,0.00047520,0.0007
 1080,0.00040694,0.00029746,-0.00053469,0.00013148,-0.00003751,-0.00000
 223,0.00157783,-0.01670529,0.00137498,-0.00114782,-0.00015094,0.000252
 87,-0.00007392,0.00032849,-0.00014793,0.00091804,-0.00825064,0.0017993
 8,-0.00119651,-0.00013940,-0.00002373,-0.00014851,0.00027237,0.0000325
 8,0.02214334,-0.29490242,0.03607723,0.00004717,0.00013422,0.00002660,-
 0.00171128,-0.00061455,-0.00301632,0.00005718,0.00067327,0.00038551,-0
 .00087244,0.00078661,0.00164972,0.00113805,-0.00605285,0.00079239,-0.0
 2195514,0.32368448,-0.00000074,-0.00000267,0.00000113,0.00000046,0.000
 00041,0.00000046,0.00000021,-0.00000215,0.,0.00000364,0.00000135,0.000
 00119,-0.00000312,0.00000631,-0.00000123,0.00001032,-0.00000451,-0.000
 00971,-0.00000194,-0.00000055,0.00000029,0.00000008,-0.00000004,-0.000
 00032,0.00000046,-0.00000022,0.00000025,-0.00000023,-0.00000018,0.0000
 0048,0.00000259,-0.00000076,-0.00000004,-0.00000097,0.00000112,-0.0000
 0028,0.00000073,-0.00000064,0.00000018,-0.00000045,0.00000152,0.000000
 43,-0.00000035,-0.00000107,-0.00000006,-0.00000003,-0.00000010,0.00000
 008,-0.00000036,-0.00000072,-0.00000002,0.,-0.00000007,-0.00000075,0.,
 0.00000007,-0.00000011,0.00000002,0.00000021,0.00000023,0.00000017,0.0
 0000026,0.00000008,0.00000002,-0.00000002,-0.00000057,-0.00000032,-0.0
 0000028,0.00000004,0.00000008,-0.00000007,0.00000003,0.,0.00000006,-0.
 00000002,0.00000012,0.00000002,0.00000004,0.00000004,0.00000005,-0.000
 00005,0.00000123,-0.00000053,0.00000029,0.00000368,0.00000355,-0.00000
 007,0.00000420,-0.00000749,0.00000217,-0.00001290,0.00002141,0.0000062
 7,-0.00000643,0.00000441,-0.00000271,0.00002869,0.00001656,0.00014261,
 -0.00002045,-0.00009020,-0.00031505,0.00115462,0.00002318,0.00097074,-
 0.00132722,0.00013309,0.00105851,-0.00001803,-0.00000135,-0.00007641,0
 .00211297,-0.02804712,0.00243935,-0.00008058,0.00064682,-0.00000057,0.
 00026270,0.00024600,-0.00008942,-0.00237725,0.03029982,-0.00652010,0.0
 0031856,-0.00052790,0.00027540,-0.00021694,-0.00034307,-0.00004193,-0.
 00334888,0.03604327,-0.05290307,0.00075526,0.00098184,0.00101166,-0.00
 303875,-0.00308568,-0.00369239,-0.00061552,-0.00025931,0.00135974,0.00
 362440,0.00171561,-0.00479407,-0.00016261,0.00155713,-0.00071739,0.002
 94941,-0.03932693,0.06189498,0.01111602,-0.00261693,0.00022674,0.00525
 478,-0.02115054,0.00112621,0.00020400,0.00551384,-0.00023727,-0.005793
 90,-0.00147068,-0.00007093,0.00400602,-0.00229380,0.00018898,0.0029558
 0,0.00125911,-0.00000998,-0.02614285,-0.00556207,-0.00040387,0.0002702
 7,-0.00002373,0.00011828,0.00010949,0.00012688,-0.00000680,0.00001643,
 0.00005561,0.00000160,-0.01860847,0.04841472,-0.00204255,0.03010465,0.
 01120174,-0.00004436,-0.00658376,0.00931571,-0.00040025,0.00273495,-0.
 01173524,0.00040763,0.00439868,0.00751507,-0.00023422,0.00104934,0.002
 29421,-0.00008753,-0.00572705,0.01140486,-0.00066474,-0.00013713,0.000
 05112,-0.00000918,-0.00057089,0.00025458,0.00002618,-0.00024138,-0.000
 83385,0.00008768,0.00021311,-0.00007567,-0.00003656,-0.00001881,0.0000
 3746,-0.00000864,0.00020876,-0.00008587,0.00000861,-0.00134002,-0.0000
 2557,-0.00009298,-0.00011594,-0.00028627,0.00006104,-0.00012293,-0.000
 27862,0.00000092,-0.00004277,0.00002786,0.00001717,-0.07050898,-0.0011
 3328,-0.00105029,0.01094991,0.00940629,-0.00025208,-0.00062008,-0.0001
 5253,-0.00000567,-0.00022193,0.00119833,-0.00005677,0.00015820,-0.0000
 2111,0.00000384,0.00025712,-0.00027702,0.00002934,-0.00019710,0.000122
 73,-0.00002257,0.00004210,-0.00002287,0.00006049,0.00004929,-0.0000375
 2,-0.00004354,0.00002239,-0.00001346,0.00000360,-0.00000837,0.00001611
 ,-0.00003245,-0.00000280,0.00000243,-0.00000096,-0.00000472,-0.0000015
 0,-0.00000095,-0.00001041,0.00002054,0.00002521,-0.00000703,-0.0000010
 3,0.00000037,-0.00000369,-0.00000027,0.00000269,-0.00000147,-0.0000125
 2,0.00000193,0.00002023,-0.00000143,-0.00000317,0.00000149,-0.00000187
 ,0.00000291,0.00001951,0.00000034,0.00000487,0.00000281,-0.00000268,-0
 .00000236,0.00000874,0.00000204,0.,-0.00000111,0.00000425,-0.00000062,
 0.06285952,0.01538523,-0.00941975,0.00065419,-0.00031825,-0.03037790,0
 .00110606,-0.00048821,0.00859007,-0.00039404,-0.00939095,-0.00281025,-
 0.00009027,0.00700427,-0.00446679,0.00032573,0.00343647,0.00335900,-0.
 00002758,-0.00936581,0.00663294,-0.00025680,0.00012068,0.00031944,0.00
 009506,0.00011311,0.00004568,-0.00000490,-0.00000122,0.00002533,0.0000
 0778,0.02643677,0.03412835,-0.00126326,0.03564470,-0.06098295,0.003137
 94,-0.00750865,0.01234792,-0.00066157,0.00356386,-0.01798747,0.0006151
 2,0.00682312,0.01118294,-0.00033586,0.00003569,0.00174214,-0.00002774,
 -0.00126648,0.01527856,-0.00038677,-0.00063927,0.00041486,-0.00000320,
 -0.00045293,0.00019219,-0.00001978,-0.00026639,-0.00079558,0.00009611,
 0.00018277,-0.00008226,-0.00004642,-0.00006288,0.00005172,-0.00000695,
 0.00017747,-0.00009911,0.00001520,-0.00162208,0.00079243,-0.00024469,-
 0.00029231,-0.00042905,0.00034624,-0.00025057,-0.00043347,-0.00021980,
 -0.00012507,0.00019702,0.00003726,-0.02683303,-0.03916324,-0.00035014,
 0.02032353,0.01369283,-0.00020146,-0.00108490,-0.00035082,-0.00000138,
 0.00065274,0.00090692,-0.00001605,0.00009993,-0.00002753,-0.00000035,0
 .00016452,0.00037767,-0.00000608,-0.00010386,0.00011797,0.00000793,0.0
 0001911,0.00000616,-0.00001038,0.00003228,0.00000395,0.00000049,-0.000
 01137,-0.00000633,-0.00000212,-0.00000436,-0.00000263,-0.00000022,-0.0
 0000056,-0.00000022,0.00000185,-0.00000105,0.00000025,0.00000341,-0.00
 000521,-0.00000080,0.00000535,-0.00000236,-0.00000106,-0.00000219,-0.0
 0000099,-0.00000137,-0.00000240,0.00000102,-0.00000330,0.00000082,0.00
 000228,0.00000079,-0.00000206,0.00000023,0.00000104,0.00000026,0.00000
 417,0.00000081,0.00000198,0.00000091,0.00000057,-0.00000043,0.00000183
 ,0.00000058,-0.00000021,0.,0.00000222,-0.00000043,-0.06012789,0.057029
 51,-0.00043906,0.00044717,0.00145535,0.00027772,0.00063462,-0.00479402
 ,0.00001859,-0.00031458,-0.00060025,0.00028507,0.00009962,0.00012295,-
 0.00021806,0.00013542,-0.00018531,-0.00008979,-0.00009679,0.00081839,0
 .00008766,-0.00011748,0.00161755,0.00009385,0.00003975,-0.00006610,-0.
 00000283,0.00000325,0.00004063,-0.00000028,0.00000147,0.00002480,-0.00
 153037,-0.00082502,-0.01922005,-0.00100954,0.00252146,0.00016218,0.000
 29858,-0.00059450,-0.00389320,-0.00009085,0.00050924,-0.00016000,-0.00
 021040,-0.00031813,0.00019819,0.00002999,0.00002606,0.00046729,-0.0001
 8373,-0.00015470,0.00642023,0.00002348,-0.00001043,0.00022388,0.000000
 32,-0.00002676,-0.00082843,0.00000445,0.00001191,0.00000865,-0.0000139
 1,0.00001666,0.00001308,0.00000364,-0.00000004,0.00001580,0.00001030,-
 0.00000818,0.00001155,0.00003076,-0.00003635,-0.00041131,-0.00002826,-
 0.00003314,0.00005393,0.00002792,0.00005347,0.00006778,0.00000835,0.00
 000114,0.00003715,-0.00016345,0.00025609,-0.03457842,-0.00063937,-0.00
 033224,0.00185638,0.00002998,0.00001610,0.00013029,-0.00002948,-0.0000
 0573,0.00009806,0.00000393,-0.00000155,-0.00006163,-0.00000045,-0.0000
 2365,-0.00008089,-0.00000008,0.00000155,0.00002442,-0.00000646,0.00000
 313,-0.00000065,0.00000522,-0.00000698,-0.00000176,0.00000087,0.000000
 34,-0.00000002,0.00000059,-0.00000109,0.00000139,0.00000070,-0.0000006
 2,-0.00000020,0.00000019,-0.00000106,-0.00000207,-0.00000033,0.0000028
 8,0.00000225,-0.00000098,0.00000112,-0.00000071,0.00000005,0.00000018,
 -0.00000173,-0.00000027,0.,0.00000150,-0.00000003,0.00000036,-0.000000
 93,0.00000002,0.00000007,0.00000042,0.00000092,-0.00000072,-0.00000067
 ,-0.00000027,0.00000003,0.00000028,0.00000013,-0.00000012,-0.00000085,
 0.,0.00000006,-0.00000030,0.00341499,-0.00187326,0.05101509\\-0.000001
 53,-0.00000113,0.00000338,-0.00000166,-0.00000231,0.00000579,-0.000002
 84,-0.00000277,0.00000774,-0.00000387,-0.00000206,0.00000732,-0.000003
 71,-0.00000081,0.00000503,-0.00000259,-0.00000031,0.00000304,0.0000002
 4,-0.00000202,0.00000330,-0.00000301,-0.00000367,0.00000952,-0.0000048
 0,-0.00000233,0.00000880,-0.00000447,-0.00000028,0.00000478,-0.0000005
 0,-0.00000276,0.00000559,0.00000196,-0.00000335,0.00000418,0.00000160,
 -0.00000213,0.00000242,0.00000248,-0.00000138,0.00000005,0.00000371,-0
 .00000151,-0.00000058,0.00000407,-0.00000278,0.00000109,0.00000327,-0.
 00000365,0.00000343,0.00000214,-0.00000043,-0.00000126,0.00000509,-0.0
 0000296,0.00000053,0.00000473,-0.00000069,-0.00000330,0.00000394,-0.00
 000013,-0.00000360,0.00000408,0.00000024,-0.00000441,0.00000651,-0.000
 00145,-0.00000360,0.00000369,-0.00000491,0.00000533,0.00000461,-0.0000
 0609,0.00000655,0.00000199,-0.00000457,0.00000640,0.00000475,-0.000005
 03,0.00000451,0.00000118,-0.00000421,0.00000642,-0.00000019,-0.0000008
 9,0.00000178,-0.00000053,0.00000073,-0.00000097,-0.00000207,0.00000080
 ,0.00000078,-0.00000308,0.00000140,0.00000045,-0.00000123,0.00000128,-
 0.00000114,-0.00000106,0.00000259,-0.00000366,-0.00000341,0.00000415,-
 0.00000433,0.00000024,0.00000214,-0.00000400,0.00000015,0.00000249,-0.
 00000464,-0.00000304,0.00000542,-0.00000688,-0.00000468,0.00000422,-0.
 00000316,-0.00000414,0.00000449,-0.00000409,0.00000052,0.00000331,-0.0
 0000649,-0.00000087,0.00000201,-0.00000270,0.00000191,0.00000083,-0.00
 000341,-0.00000180,0.00000499,-0.00000733,-0.00000476,0.00000665,-0.00
 000738,-0.00000193,0.00000551,-0.00000810,0.00000136,0.00000300,-0.000
 00671,0.00000183,0.00000325,-0.00000763,-0.00000154,0.00000584,-0.0000
 0912,-0.00000300,0.00000507,-0.00000626,0.00000025,-0.00000376,0.00000
 657\\\@


 ADVERTISING--  HE WHO HAS SOMETHING TO SELL AND GOES AND WHISPERS
                IN A WELL, IS NOT SO APT TO GET THE DOLLARS AS HE
                WHO CLIMBS A TREE AND HOLLERS.

                   -- FROM THE BACK OF A SUGAR PACKET
 Job cpu time:       0 days  9 hours 16 minutes 49.7 seconds.
 Elapsed time:       0 days  0 hours 34 minutes 53.6 seconds.
 File lengths (MBytes):  RWF=   2884 Int=      0 D2E=      0 Chk=     56 Scr=      8
 Normal termination of Gaussian 16 at Sun Dec 16 17:56:22 2018.
