 Entering Gaussian System, Link 0=g16
 Initial command:
 /gpfs/apps/hpc/Apps/Restricted/Gaussian/Rev_A.03/g16/l1.exe "/gpfs/scratch60/fas/hammes_schiffer/jg2487/c44n01/Gau-258176.inp" -scrdir="/gpfs/scratch60/fas/hammes_schiffer/jg2487/c44n01/"
 Entering Link 1 = /gpfs/apps/hpc/Apps/Restricted/Gaussian/Rev_A.03/g16/l1.exe PID=    258178.
  
 Copyright (c) 1988,1990,1992,1993,1995,1998,2003,2009,2016,
            Gaussian, Inc.  All Rights Reserved.
  
 This is part of the Gaussian(R) 16 program.  It is based on
 the Gaussian(R) 09 system (copyright 2009, Gaussian, Inc.),
 the Gaussian(R) 03 system (copyright 2003, Gaussian, Inc.),
 the Gaussian(R) 98 system (copyright 1998, Gaussian, Inc.),
 the Gaussian(R) 94 system (copyright 1995, Gaussian, Inc.),
 the Gaussian 92(TM) system (copyright 1992, Gaussian, Inc.),
 the Gaussian 90(TM) system (copyright 1990, Gaussian, Inc.),
 the Gaussian 88(TM) system (copyright 1988, Gaussian, Inc.),
 the Gaussian 86(TM) system (copyright 1986, Carnegie Mellon
 University), and the Gaussian 82(TM) system (copyright 1983,
 Carnegie Mellon University). Gaussian is a federally registered
 trademark of Gaussian, Inc.
  
 This software contains proprietary and confidential information,
 including trade secrets, belonging to Gaussian, Inc.
  
 This software is provided under written license and may be
 used, copied, transmitted, or stored only in accord with that
 written license.
  
 The following legend is applicable only to US Government
 contracts under FAR:
  
                    RESTRICTED RIGHTS LEGEND
  
 Use, reproduction and disclosure by the US Government is
 subject to restrictions as set forth in subparagraphs (a)
 and (c) of the Commercial Computer Software - Restricted
 Rights clause in FAR 52.227-19.
  
 Gaussian, Inc.
 340 Quinnipiac St., Bldg. 40, Wallingford CT 06492
  
  
 ---------------------------------------------------------------
 Warning -- This program may not be used in any manner that
 competes with the business of Gaussian, Inc. or will provide
 assistance to any competitor of Gaussian, Inc.  The licensee
 of this program is prohibited from giving any competitor of
 Gaussian, Inc. access to this program.  By using this program,
 the user acknowledges that Gaussian, Inc. is engaged in the
 business of creating and licensing software in the field of
 computational chemistry and represents and warrants to the
 licensee that it is not a competitor of Gaussian, Inc. and that
 it will not use this program in any manner prohibited above.
 ---------------------------------------------------------------
  

 Cite this work as:
 Gaussian 16, Revision A.03,
 M. J. Frisch, G. W. Trucks, H. B. Schlegel, G. E. Scuseria, 
 M. A. Robb, J. R. Cheeseman, G. Scalmani, V. Barone, 
 G. A. Petersson, H. Nakatsuji, X. Li, M. Caricato, A. V. Marenich, 
 J. Bloino, B. G. Janesko, R. Gomperts, B. Mennucci, H. P. Hratchian, 
 J. V. Ortiz, A. F. Izmaylov, J. L. Sonnenberg, D. Williams-Young, 
 F. Ding, F. Lipparini, F. Egidi, J. Goings, B. Peng, A. Petrone, 
 T. Henderson, D. Ranasinghe, V. G. Zakrzewski, J. Gao, N. Rega, 
 G. Zheng, W. Liang, M. Hada, M. Ehara, K. Toyota, R. Fukuda, 
 J. Hasegawa, M. Ishida, T. Nakajima, Y. Honda, O. Kitao, H. Nakai, 
 T. Vreven, K. Throssell, J. A. Montgomery, Jr., J. E. Peralta, 
 F. Ogliaro, M. J. Bearpark, J. J. Heyd, E. N. Brothers, K. N. Kudin, 
 V. N. Staroverov, T. A. Keith, R. Kobayashi, J. Normand, 
 K. Raghavachari, A. P. Rendell, J. C. Burant, S. S. Iyengar, 
 J. Tomasi, M. Cossi, J. M. Millam, M. Klene, C. Adamo, R. Cammi, 
 J. W. Ochterski, R. L. Martin, K. Morokuma, O. Farkas, 
 J. B. Foresman, and D. J. Fox, Gaussian, Inc., Wallingford CT, 2016.
 
 ******************************************
 Gaussian 16:  ES64L-G16RevA.03 25-Dec-2016
                21-Dec-2018 
 ******************************************
 %chk=cyclohexyl-monoBIP-TS2_rev.chk
 %mem=10GB
 %nprocshared=16
 Will use up to   16 processors via shared memory.
 ----------------------------------------------------------------------
 #p opt=(calcfc,tight,ts,noeigentest) freq=internalmodes b3lyp/6-31g(d,
 p) scrf=(cpcm,solvent=dichloromethane,read) nosymm empiricaldispersion
 =gd3bj int=grid=ultrafine
 ----------------------------------------------------------------------
 1/5=1,7=10,10=4,11=1,18=20,26=6,38=1,40=2/1,3;
 2/9=110,12=2,15=1,17=6,18=5,40=1/2;
 3/5=1,6=6,7=101,11=2,25=1,30=1,70=2103,71=2,72=9,74=-5,75=-5,124=41,140=1/1,2,3;
 4//1;
 5/5=2,38=5,53=9/2;
 8/6=4,10=90,11=11/1;
 11/6=1,8=1,9=11,15=111,16=1,31=1/1,2,10;
 10/6=1,13=1,31=1/2;
 6/7=2,8=2,9=2,10=2,28=1/1;
 7/10=1,18=20,25=1,30=1/1,2,3,16;
 1/5=1,7=10,10=4,11=1,18=20,26=6/3(2);
 2/9=110,15=1/2;
 99//99;
 2/9=110,15=1/2;
 3/5=1,6=6,7=101,11=2,25=1,30=1,70=2105,71=1,72=9,74=-5,75=-5,124=41/1,2,3;
 4/5=5,16=3,69=1/1;
 5/5=2,38=5,53=9/2;
 7/30=1/1,2,3,16;
 1/5=1,7=10,11=1,18=20,26=6/3(-5);
 2/9=110,15=1/2;
 6/7=2,8=2,9=2,10=2,19=2,28=1/1;
 99/9=1/99;
 Leave Link    1 at Fri Dec 21 13:56:31 2018, MaxMem=  1342177280 cpu:               7.5 elap:               0.5
 (Enter /gpfs/apps/hpc/Apps/Restricted/Gaussian/Rev_A.03/g16/l101.exe)
 ----------------------------------------------------------------------
 cyclohexylimine monoBIP oxidized, optimize to transition state of firs
 t proton transferred
 ----------------------------------------------------------------------
 Symbolic Z-matrix:
 Charge =  1 Multiplicity = 2
 C                    -0.49815   2.63874   0.2257 
 C                    -1.92301   2.817     0.17491 
 C                    -2.48944   4.09675   0.09396 
 C                    -1.62807   5.19055   0.07527 
 C                    -0.23117   5.03439   0.13601 
 C                     0.36484   3.76856   0.21052 
 C                    -1.4167    0.71694   0.28694 
 H                    -3.56328   4.23001   0.04893 
 H                    -2.03942   6.19047   0.01693 
 H                     0.40268   5.91313   0.12656 
 N                    -2.47442   1.57372   0.21726 
 C                    -3.03625  -1.16666   0.36355 
 C                    -1.65264  -0.69783   0.3498 
 C                    -0.60684  -1.6211    0.39102 
 C                    -0.86798  -2.98336   0.4535 
 C                    -2.23181  -3.418     0.4931 
 C                    -3.31667  -2.57698   0.46001 
 H                     0.40595  -1.2447    0.37161 
 H                    -2.40896  -4.48148   0.55536 
 C                     0.22825  -4.03811   0.47018 
 C                    -4.75701  -3.09095   0.5162 
 O                    -4.00702  -0.30789   0.28502 
 N                    -0.1939    1.32193   0.29305 
 H                     1.77533   1.6592    0.33307 
 C                     1.78522   3.63764   0.2812 
 H                     2.40024   4.53109   0.28876 
 N                     2.38469   2.4865    0.34587 
 C                     3.84535   2.29452   0.43266 
 C                     4.53269   2.67762  -0.88572 
 C                     4.44283   3.06443   1.61688 
 H                     3.9762    1.22373   0.60185 
 C                     6.04159   2.42376  -0.7878 
 H                     4.34651   3.73991  -1.08225 
 H                     4.09515   2.10877  -1.70997 
 C                     5.95128   2.80716   1.70933 
 H                     4.2691    4.13685   1.47149 
 H                     3.9355    2.77112   2.53959 
 C                     6.66148   3.16797   0.39952 
 H                     6.52443   2.71962  -1.72324 
 H                     6.21329   1.347    -0.66917 
 H                     6.36654   3.3801    2.54311 
 H                     6.12113   1.74763   1.93535 
 H                     7.72866   2.93925   0.47428 
 H                     6.57667   4.24879   0.23169 
 H                    -3.55835   0.709     0.23438 
 C                    -5.4794   -2.49107   1.7429 
 H                    -5.5297   -1.40441   1.68673 
 H                    -6.49903  -2.88283   1.78744 
 H                    -4.96658  -2.77041   2.66702 
 C                    -5.50185  -2.70023  -0.77923 
 H                    -6.51419  -3.11206  -0.75303 
 H                    -5.57162  -1.6189   -0.89082 
 H                    -4.98848  -3.10866  -1.65344 
 C                    -4.7953   -4.62115   0.6487 
 H                    -4.33259  -5.11817  -0.2082 
 H                    -4.28865  -4.95837   1.55685 
 H                    -5.83611  -4.94641   0.70319 
 C                     0.0762   -4.90815   1.73765 
 H                    -0.89501  -5.40567   1.77618 
 H                     0.85048  -5.6799    1.74031 
 H                     0.18869  -4.30342   2.64047 
 C                     1.63135  -3.41931   0.46174 
 H                     1.79886  -2.81599  -0.43387 
 H                     1.79664  -2.79056   1.34011 
 H                     2.37725  -4.21723   0.47289 
 C                     0.06769  -4.92985  -0.78206 
 H                     0.83181  -5.71156  -0.76953 
 H                    -0.91148  -5.41238  -0.81201 
 H                     0.18956  -4.34288  -1.6954 
 
 ITRead=  0  0  0  0  0  0  0  0  0  0  0  0  0  0  0  0  0  0  0  0
 ITRead=  0  0  0  0  0  0  0  0  0  0  0  0  0  0  0  0  0  0  0  0
 ITRead=  0  0  0  0  0  0  0  0  0  0  0  0  0  0  0  0  0  0  0  0
 ITRead=  0  0  0  0  0  0  0  0  0
 MicOpt= -1 -1 -1 -1 -1 -1 -1 -1 -1 -1 -1 -1 -1 -1 -1 -1 -1 -1 -1 -1
 MicOpt= -1 -1 -1 -1 -1 -1 -1 -1 -1 -1 -1 -1 -1 -1 -1 -1 -1 -1 -1 -1
 MicOpt= -1 -1 -1 -1 -1 -1 -1 -1 -1 -1 -1 -1 -1 -1 -1 -1 -1 -1 -1 -1
 MicOpt= -1 -1 -1 -1 -1 -1 -1 -1 -1
 NAtoms=     69 NQM=       69 NQMF=       0 NMMI=      0 NMMIF=      0
                NMic=       0 NMicF=      0.
                    Isotopes and Nuclear Properties:
 (Nuclear quadrupole moments (NQMom) in fm**2, nuclear magnetic moments (NMagM)
  in nuclear magnetons)

  Atom         1           2           3           4           5           6           7           8           9          10
 IAtWgt=          12          12          12          12          12          12          12           1           1           1
 AtmWgt=  12.0000000  12.0000000  12.0000000  12.0000000  12.0000000  12.0000000  12.0000000   1.0078250   1.0078250   1.0078250
 NucSpn=           0           0           0           0           0           0           0           1           1           1
 AtZEff=  -0.0000000  -0.0000000  -0.0000000  -0.0000000  -0.0000000  -0.0000000  -0.0000000  -0.0000000  -0.0000000  -0.0000000
 NQMom=    0.0000000   0.0000000   0.0000000   0.0000000   0.0000000   0.0000000   0.0000000   0.0000000   0.0000000   0.0000000
 NMagM=    0.0000000   0.0000000   0.0000000   0.0000000   0.0000000   0.0000000   0.0000000   2.7928460   2.7928460   2.7928460
 AtZNuc=   6.0000000   6.0000000   6.0000000   6.0000000   6.0000000   6.0000000   6.0000000   1.0000000   1.0000000   1.0000000

  Atom        11          12          13          14          15          16          17          18          19          20
 IAtWgt=          14          12          12          12          12          12          12           1           1          12
 AtmWgt=  14.0030740  12.0000000  12.0000000  12.0000000  12.0000000  12.0000000  12.0000000   1.0078250   1.0078250  12.0000000
 NucSpn=           2           0           0           0           0           0           0           1           1           0
 AtZEff=  -0.0000000  -0.0000000  -0.0000000  -0.0000000  -0.0000000  -0.0000000  -0.0000000  -0.0000000  -0.0000000  -0.0000000
 NQMom=    2.0440000   0.0000000   0.0000000   0.0000000   0.0000000   0.0000000   0.0000000   0.0000000   0.0000000   0.0000000
 NMagM=    0.4037610   0.0000000   0.0000000   0.0000000   0.0000000   0.0000000   0.0000000   2.7928460   2.7928460   0.0000000
 AtZNuc=   7.0000000   6.0000000   6.0000000   6.0000000   6.0000000   6.0000000   6.0000000   1.0000000   1.0000000   6.0000000

  Atom        21          22          23          24          25          26          27          28          29          30
 IAtWgt=          12          16          14           1          12           1          14          12          12          12
 AtmWgt=  12.0000000  15.9949146  14.0030740   1.0078250  12.0000000   1.0078250  14.0030740  12.0000000  12.0000000  12.0000000
 NucSpn=           0           0           2           1           0           1           2           0           0           0
 AtZEff=  -0.0000000  -0.0000000  -0.0000000  -0.0000000  -0.0000000  -0.0000000  -0.0000000  -0.0000000  -0.0000000  -0.0000000
 NQMom=    0.0000000   0.0000000   2.0440000   0.0000000   0.0000000   0.0000000   2.0440000   0.0000000   0.0000000   0.0000000
 NMagM=    0.0000000   0.0000000   0.4037610   2.7928460   0.0000000   2.7928460   0.4037610   0.0000000   0.0000000   0.0000000
 AtZNuc=   6.0000000   8.0000000   7.0000000   1.0000000   6.0000000   1.0000000   7.0000000   6.0000000   6.0000000   6.0000000

  Atom        31          32          33          34          35          36          37          38          39          40
 IAtWgt=           1          12           1           1          12           1           1          12           1           1
 AtmWgt=   1.0078250  12.0000000   1.0078250   1.0078250  12.0000000   1.0078250   1.0078250  12.0000000   1.0078250   1.0078250
 NucSpn=           1           0           1           1           0           1           1           0           1           1
 AtZEff=  -0.0000000  -0.0000000  -0.0000000  -0.0000000  -0.0000000  -0.0000000  -0.0000000  -0.0000000  -0.0000000  -0.0000000
 NQMom=    0.0000000   0.0000000   0.0000000   0.0000000   0.0000000   0.0000000   0.0000000   0.0000000   0.0000000   0.0000000
 NMagM=    2.7928460   0.0000000   2.7928460   2.7928460   0.0000000   2.7928460   2.7928460   0.0000000   2.7928460   2.7928460
 AtZNuc=   1.0000000   6.0000000   1.0000000   1.0000000   6.0000000   1.0000000   1.0000000   6.0000000   1.0000000   1.0000000

  Atom        41          42          43          44          45          46          47          48          49          50
 IAtWgt=           1           1           1           1           1          12           1           1           1          12
 AtmWgt=   1.0078250   1.0078250   1.0078250   1.0078250   1.0078250  12.0000000   1.0078250   1.0078250   1.0078250  12.0000000
 NucSpn=           1           1           1           1           1           0           1           1           1           0
 AtZEff=  -0.0000000  -0.0000000  -0.0000000  -0.0000000  -0.0000000  -0.0000000  -0.0000000  -0.0000000  -0.0000000  -0.0000000
 NQMom=    0.0000000   0.0000000   0.0000000   0.0000000   0.0000000   0.0000000   0.0000000   0.0000000   0.0000000   0.0000000
 NMagM=    2.7928460   2.7928460   2.7928460   2.7928460   2.7928460   0.0000000   2.7928460   2.7928460   2.7928460   0.0000000
 AtZNuc=   1.0000000   1.0000000   1.0000000   1.0000000   1.0000000   6.0000000   1.0000000   1.0000000   1.0000000   6.0000000

  Atom        51          52          53          54          55          56          57          58          59          60
 IAtWgt=           1           1           1          12           1           1           1          12           1           1
 AtmWgt=   1.0078250   1.0078250   1.0078250  12.0000000   1.0078250   1.0078250   1.0078250  12.0000000   1.0078250   1.0078250
 NucSpn=           1           1           1           0           1           1           1           0           1           1
 AtZEff=  -0.0000000  -0.0000000  -0.0000000  -0.0000000  -0.0000000  -0.0000000  -0.0000000  -0.0000000  -0.0000000  -0.0000000
 NQMom=    0.0000000   0.0000000   0.0000000   0.0000000   0.0000000   0.0000000   0.0000000   0.0000000   0.0000000   0.0000000
 NMagM=    2.7928460   2.7928460   2.7928460   0.0000000   2.7928460   2.7928460   2.7928460   0.0000000   2.7928460   2.7928460
 AtZNuc=   1.0000000   1.0000000   1.0000000   6.0000000   1.0000000   1.0000000   1.0000000   6.0000000   1.0000000   1.0000000

  Atom        61          62          63          64          65          66          67          68          69
 IAtWgt=           1          12           1           1           1          12           1           1           1
 AtmWgt=   1.0078250  12.0000000   1.0078250   1.0078250   1.0078250  12.0000000   1.0078250   1.0078250   1.0078250
 NucSpn=           1           0           1           1           1           0           1           1           1
 AtZEff=  -0.0000000  -0.0000000  -0.0000000  -0.0000000  -0.0000000  -0.0000000  -0.0000000  -0.0000000  -0.0000000
 NQMom=    0.0000000   0.0000000   0.0000000   0.0000000   0.0000000   0.0000000   0.0000000   0.0000000   0.0000000
 NMagM=    2.7928460   0.0000000   2.7928460   2.7928460   2.7928460   0.0000000   2.7928460   2.7928460   2.7928460
 AtZNuc=   1.0000000   6.0000000   1.0000000   1.0000000   1.0000000   6.0000000   1.0000000   1.0000000   1.0000000
 Leave Link  101 at Fri Dec 21 13:56:31 2018, MaxMem=  1342177280 cpu:               4.2 elap:               0.3
 (Enter /gpfs/apps/hpc/Apps/Restricted/Gaussian/Rev_A.03/g16/l103.exe)

 GradGradGradGradGradGradGradGradGradGradGradGradGradGradGradGradGradGrad
 Berny optimization.
 Initialization pass.
                           ----------------------------
                           !    Initial Parameters    !
                           ! (Angstroms and Degrees)  !
 --------------------------                            --------------------------
 ! Name  Definition              Value          Derivative Info.                !
 --------------------------------------------------------------------------------
 ! R1    R(1,2)                  1.4369         calculate D2E/DX2 analytically  !
 ! R2    R(1,6)                  1.4218         calculate D2E/DX2 analytically  !
 ! R3    R(1,23)                 1.3532         calculate D2E/DX2 analytically  !
 ! R4    R(2,3)                  1.4018         calculate D2E/DX2 analytically  !
 ! R5    R(2,11)                 1.3607         calculate D2E/DX2 analytically  !
 ! R6    R(3,4)                  1.3924         calculate D2E/DX2 analytically  !
 ! R7    R(3,8)                  1.083          calculate D2E/DX2 analytically  !
 ! R8    R(4,5)                  1.4069         calculate D2E/DX2 analytically  !
 ! R9    R(4,9)                  1.0828         calculate D2E/DX2 analytically  !
 ! R10   R(5,6)                  1.4011         calculate D2E/DX2 analytically  !
 ! R11   R(5,10)                 1.0835         calculate D2E/DX2 analytically  !
 ! R12   R(6,25)                 1.4281         calculate D2E/DX2 analytically  !
 ! R13   R(7,11)                 1.363          calculate D2E/DX2 analytically  !
 ! R14   R(7,13)                 1.4357         calculate D2E/DX2 analytically  !
 ! R15   R(7,23)                 1.3643         calculate D2E/DX2 analytically  !
 ! R16   R(12,13)                1.461          calculate D2E/DX2 analytically  !
 ! R17   R(12,17)                1.4412         calculate D2E/DX2 analytically  !
 ! R18   R(12,22)                1.2985         calculate D2E/DX2 analytically  !
 ! R19   R(13,14)                1.3956         calculate D2E/DX2 analytically  !
 ! R20   R(14,15)                1.3885         calculate D2E/DX2 analytically  !
 ! R21   R(14,18)                1.0807         calculate D2E/DX2 analytically  !
 ! R22   R(15,16)                1.432          calculate D2E/DX2 analytically  !
 ! R23   R(15,20)                1.5214         calculate D2E/DX2 analytically  !
 ! R24   R(16,17)                1.3731         calculate D2E/DX2 analytically  !
 ! R25   R(16,19)                1.0799         calculate D2E/DX2 analytically  !
 ! R26   R(17,21)                1.5303         calculate D2E/DX2 analytically  !
 ! R27   R(20,58)                1.5448         calculate D2E/DX2 analytically  !
 ! R28   R(20,62)                1.5335         calculate D2E/DX2 analytically  !
 ! R29   R(20,66)                1.5457         calculate D2E/DX2 analytically  !
 ! R30   R(21,46)                1.5448         calculate D2E/DX2 analytically  !
 ! R31   R(21,50)                1.5445         calculate D2E/DX2 analytically  !
 ! R32   R(21,54)                1.5364         calculate D2E/DX2 analytically  !
 ! R33   R(22,45)                1.1126         calculate D2E/DX2 analytically  !
 ! R34   R(24,27)                1.0276         calculate D2E/DX2 analytically  !
 ! R35   R(25,26)                1.0847         calculate D2E/DX2 analytically  !
 ! R36   R(25,27)                1.2995         calculate D2E/DX2 analytically  !
 ! R37   R(27,28)                1.4758         calculate D2E/DX2 analytically  !
 ! R38   R(28,29)                1.5354         calculate D2E/DX2 analytically  !
 ! R39   R(28,30)                1.5337         calculate D2E/DX2 analytically  !
 ! R40   R(28,31)                1.0919         calculate D2E/DX2 analytically  !
 ! R41   R(29,32)                1.5332         calculate D2E/DX2 analytically  !
 ! R42   R(29,33)                1.0962         calculate D2E/DX2 analytically  !
 ! R43   R(29,34)                1.0929         calculate D2E/DX2 analytically  !
 ! R44   R(30,35)                1.533          calculate D2E/DX2 analytically  !
 ! R45   R(30,36)                1.0961         calculate D2E/DX2 analytically  !
 ! R46   R(30,37)                1.0931         calculate D2E/DX2 analytically  !
 ! R47   R(32,38)                1.5323         calculate D2E/DX2 analytically  !
 ! R48   R(32,39)                1.0935         calculate D2E/DX2 analytically  !
 ! R49   R(32,40)                1.0968         calculate D2E/DX2 analytically  !
 ! R50   R(35,38)                1.533          calculate D2E/DX2 analytically  !
 ! R51   R(35,41)                1.0936         calculate D2E/DX2 analytically  !
 ! R52   R(35,42)                1.0966         calculate D2E/DX2 analytically  !
 ! R53   R(38,43)                1.094          calculate D2E/DX2 analytically  !
 ! R54   R(38,44)                1.0971         calculate D2E/DX2 analytically  !
 ! R55   R(46,47)                1.0893         calculate D2E/DX2 analytically  !
 ! R56   R(46,48)                1.0932         calculate D2E/DX2 analytically  !
 ! R57   R(46,49)                1.0932         calculate D2E/DX2 analytically  !
 ! R58   R(50,51)                1.0932         calculate D2E/DX2 analytically  !
 ! R59   R(50,52)                1.0893         calculate D2E/DX2 analytically  !
 ! R60   R(50,53)                1.093          calculate D2E/DX2 analytically  !
 ! R61   R(54,55)                1.0933         calculate D2E/DX2 analytically  !
 ! R62   R(54,56)                1.0932         calculate D2E/DX2 analytically  !
 ! R63   R(54,57)                1.0918         calculate D2E/DX2 analytically  !
 ! R64   R(58,59)                1.0919         calculate D2E/DX2 analytically  !
 ! R65   R(58,60)                1.0932         calculate D2E/DX2 analytically  !
 ! R66   R(58,61)                1.0924         calculate D2E/DX2 analytically  !
 ! R67   R(62,63)                1.0928         calculate D2E/DX2 analytically  !
 ! R68   R(62,64)                1.0928         calculate D2E/DX2 analytically  !
 ! R69   R(62,65)                1.0923         calculate D2E/DX2 analytically  !
 ! R70   R(66,67)                1.0932         calculate D2E/DX2 analytically  !
 ! R71   R(66,68)                1.092          calculate D2E/DX2 analytically  !
 ! R72   R(66,69)                1.0925         calculate D2E/DX2 analytically  !
 ! A1    A(2,1,6)              120.195          calculate D2E/DX2 analytically  !
 ! A2    A(2,1,23)             110.2088         calculate D2E/DX2 analytically  !
 ! A3    A(6,1,23)             129.5946         calculate D2E/DX2 analytically  !
 ! A4    A(1,2,3)              121.0633         calculate D2E/DX2 analytically  !
 ! A5    A(1,2,11)             106.7018         calculate D2E/DX2 analytically  !
 ! A6    A(3,2,11)             132.2346         calculate D2E/DX2 analytically  !
 ! A7    A(2,3,4)              117.9012         calculate D2E/DX2 analytically  !
 ! A8    A(2,3,8)              121.0224         calculate D2E/DX2 analytically  !
 ! A9    A(4,3,8)              121.0763         calculate D2E/DX2 analytically  !
 ! A10   A(3,4,5)              121.7667         calculate D2E/DX2 analytically  !
 ! A11   A(3,4,9)              119.4154         calculate D2E/DX2 analytically  !
 ! A12   A(5,4,9)              118.8173         calculate D2E/DX2 analytically  !
 ! A13   A(4,5,6)              121.6636         calculate D2E/DX2 analytically  !
 ! A14   A(4,5,10)             119.3685         calculate D2E/DX2 analytically  !
 ! A15   A(6,5,10)             118.9678         calculate D2E/DX2 analytically  !
 ! A16   A(1,6,5)              117.406          calculate D2E/DX2 analytically  !
 ! A17   A(1,6,25)             122.0259         calculate D2E/DX2 analytically  !
 ! A18   A(5,6,25)             120.5652         calculate D2E/DX2 analytically  !
 ! A19   A(11,7,13)            119.6142         calculate D2E/DX2 analytically  !
 ! A20   A(11,7,23)            114.6473         calculate D2E/DX2 analytically  !
 ! A21   A(13,7,23)            125.7383         calculate D2E/DX2 analytically  !
 ! A22   A(2,11,7)             105.1572         calculate D2E/DX2 analytically  !
 ! A23   A(13,12,17)           119.93           calculate D2E/DX2 analytically  !
 ! A24   A(13,12,22)           119.6856         calculate D2E/DX2 analytically  !
 ! A25   A(17,12,22)           120.3842         calculate D2E/DX2 analytically  !
 ! A26   A(7,13,12)            118.1823         calculate D2E/DX2 analytically  !
 ! A27   A(7,13,14)            122.0089         calculate D2E/DX2 analytically  !
 ! A28   A(12,13,14)           119.8081         calculate D2E/DX2 analytically  !
 ! A29   A(13,14,15)           120.6269         calculate D2E/DX2 analytically  !
 ! A30   A(13,14,18)           118.1204         calculate D2E/DX2 analytically  !
 ! A31   A(15,14,18)           121.2527         calculate D2E/DX2 analytically  !
 ! A32   A(14,15,16)           118.5664         calculate D2E/DX2 analytically  !
 ! A33   A(14,15,20)           123.0374         calculate D2E/DX2 analytically  !
 ! A34   A(16,15,20)           118.3942         calculate D2E/DX2 analytically  !
 ! A35   A(15,16,17)           124.466          calculate D2E/DX2 analytically  !
 ! A36   A(15,16,19)           117.1768         calculate D2E/DX2 analytically  !
 ! A37   A(17,16,19)           118.3571         calculate D2E/DX2 analytically  !
 ! A38   A(12,17,16)           116.5697         calculate D2E/DX2 analytically  !
 ! A39   A(12,17,21)           120.948          calculate D2E/DX2 analytically  !
 ! A40   A(16,17,21)           122.4819         calculate D2E/DX2 analytically  !
 ! A41   A(15,20,58)           109.1798         calculate D2E/DX2 analytically  !
 ! A42   A(15,20,62)           112.3003         calculate D2E/DX2 analytically  !
 ! A43   A(15,20,66)           108.4363         calculate D2E/DX2 analytically  !
 ! A44   A(58,20,62)           108.7733         calculate D2E/DX2 analytically  !
 ! A45   A(58,20,66)           109.2419         calculate D2E/DX2 analytically  !
 ! A46   A(62,20,66)           108.8677         calculate D2E/DX2 analytically  !
 ! A47   A(17,21,46)           109.8072         calculate D2E/DX2 analytically  !
 ! A48   A(17,21,50)           109.7628         calculate D2E/DX2 analytically  !
 ! A49   A(17,21,54)           111.1694         calculate D2E/DX2 analytically  !
 ! A50   A(46,21,50)           110.0146         calculate D2E/DX2 analytically  !
 ! A51   A(46,21,54)           107.8552         calculate D2E/DX2 analytically  !
 ! A52   A(50,21,54)           108.1958         calculate D2E/DX2 analytically  !
 ! A53   A(12,22,45)           107.8026         calculate D2E/DX2 analytically  !
 ! A54   A(1,23,7)             103.2846         calculate D2E/DX2 analytically  !
 ! A55   A(6,25,26)            119.2589         calculate D2E/DX2 analytically  !
 ! A56   A(6,25,27)            122.852          calculate D2E/DX2 analytically  !
 ! A57   A(26,25,27)           117.8877         calculate D2E/DX2 analytically  !
 ! A58   A(24,27,25)           116.0407         calculate D2E/DX2 analytically  !
 ! A59   A(24,27,28)           118.8771         calculate D2E/DX2 analytically  !
 ! A60   A(25,27,28)           125.0822         calculate D2E/DX2 analytically  !
 ! A61   A(27,28,29)           111.1084         calculate D2E/DX2 analytically  !
 ! A62   A(27,28,30)           111.45           calculate D2E/DX2 analytically  !
 ! A63   A(27,28,31)           104.7903         calculate D2E/DX2 analytically  !
 ! A64   A(29,28,30)           111.3073         calculate D2E/DX2 analytically  !
 ! A65   A(29,28,31)           108.9105         calculate D2E/DX2 analytically  !
 ! A66   A(30,28,31)           109.0233         calculate D2E/DX2 analytically  !
 ! A67   A(28,29,32)           110.1459         calculate D2E/DX2 analytically  !
 ! A68   A(28,29,33)           108.6449         calculate D2E/DX2 analytically  !
 ! A69   A(28,29,34)           109.7858         calculate D2E/DX2 analytically  !
 ! A70   A(32,29,33)           109.8178         calculate D2E/DX2 analytically  !
 ! A71   A(32,29,34)           110.854          calculate D2E/DX2 analytically  !
 ! A72   A(33,29,34)           107.5282         calculate D2E/DX2 analytically  !
 ! A73   A(28,30,35)           110.2214         calculate D2E/DX2 analytically  !
 ! A74   A(28,30,36)           109.087          calculate D2E/DX2 analytically  !
 ! A75   A(28,30,37)           109.6509         calculate D2E/DX2 analytically  !
 ! A76   A(35,30,36)           109.1567         calculate D2E/DX2 analytically  !
 ! A77   A(35,30,37)           111.1465         calculate D2E/DX2 analytically  !
 ! A78   A(36,30,37)           107.5143         calculate D2E/DX2 analytically  !
 ! A79   A(29,32,38)           111.5438         calculate D2E/DX2 analytically  !
 ! A80   A(29,32,39)           109.5797         calculate D2E/DX2 analytically  !
 ! A81   A(29,32,40)           108.8754         calculate D2E/DX2 analytically  !
 ! A82   A(38,32,39)           110.6609         calculate D2E/DX2 analytically  !
 ! A83   A(38,32,40)           109.2491         calculate D2E/DX2 analytically  !
 ! A84   A(39,32,40)           106.7993         calculate D2E/DX2 analytically  !
 ! A85   A(30,35,38)           111.3965         calculate D2E/DX2 analytically  !
 ! A86   A(30,35,41)           109.3719         calculate D2E/DX2 analytically  !
 ! A87   A(30,35,42)           109.086          calculate D2E/DX2 analytically  !
 ! A88   A(38,35,41)           110.6218         calculate D2E/DX2 analytically  !
 ! A89   A(38,35,42)           109.3747         calculate D2E/DX2 analytically  !
 ! A90   A(41,35,42)           106.8725         calculate D2E/DX2 analytically  !
 ! A91   A(32,38,35)           111.1198         calculate D2E/DX2 analytically  !
 ! A92   A(32,38,43)           110.247          calculate D2E/DX2 analytically  !
 ! A93   A(32,38,44)           109.189          calculate D2E/DX2 analytically  !
 ! A94   A(35,38,43)           110.1405         calculate D2E/DX2 analytically  !
 ! A95   A(35,38,44)           109.0723         calculate D2E/DX2 analytically  !
 ! A96   A(43,38,44)           106.9688         calculate D2E/DX2 analytically  !
 ! A97   A(21,46,47)           111.5944         calculate D2E/DX2 analytically  !
 ! A98   A(21,46,48)           109.2282         calculate D2E/DX2 analytically  !
 ! A99   A(21,46,49)           110.651          calculate D2E/DX2 analytically  !
 ! A100  A(47,46,48)           108.4535         calculate D2E/DX2 analytically  !
 ! A101  A(47,46,49)           108.6738         calculate D2E/DX2 analytically  !
 ! A102  A(48,46,49)           108.1514         calculate D2E/DX2 analytically  !
 ! A103  A(21,50,51)           109.3397         calculate D2E/DX2 analytically  !
 ! A104  A(21,50,52)           111.5878         calculate D2E/DX2 analytically  !
 ! A105  A(21,50,53)           110.475          calculate D2E/DX2 analytically  !
 ! A106  A(51,50,52)           108.4878         calculate D2E/DX2 analytically  !
 ! A107  A(51,50,53)           108.2609         calculate D2E/DX2 analytically  !
 ! A108  A(52,50,53)           108.6079         calculate D2E/DX2 analytically  !
 ! A109  A(21,54,55)           112.0            calculate D2E/DX2 analytically  !
 ! A110  A(21,54,56)           111.5498         calculate D2E/DX2 analytically  !
 ! A111  A(21,54,57)           108.9518         calculate D2E/DX2 analytically  !
 ! A112  A(55,54,56)           108.3424         calculate D2E/DX2 analytically  !
 ! A113  A(55,54,57)           107.8859         calculate D2E/DX2 analytically  !
 ! A114  A(56,54,57)           107.9661         calculate D2E/DX2 analytically  !
 ! A115  A(20,58,59)           111.9076         calculate D2E/DX2 analytically  !
 ! A116  A(20,58,60)           109.261          calculate D2E/DX2 analytically  !
 ! A117  A(20,58,61)           110.8642         calculate D2E/DX2 analytically  !
 ! A118  A(59,58,60)           107.9519         calculate D2E/DX2 analytically  !
 ! A119  A(59,58,61)           108.3391         calculate D2E/DX2 analytically  !
 ! A120  A(60,58,61)           108.4115         calculate D2E/DX2 analytically  !
 ! A121  A(20,62,63)           111.5643         calculate D2E/DX2 analytically  !
 ! A122  A(20,62,64)           111.4778         calculate D2E/DX2 analytically  !
 ! A123  A(20,62,65)           109.2669         calculate D2E/DX2 analytically  !
 ! A124  A(63,62,64)           108.5369         calculate D2E/DX2 analytically  !
 ! A125  A(63,62,65)           107.8771         calculate D2E/DX2 analytically  !
 ! A126  A(64,62,65)           107.9874         calculate D2E/DX2 analytically  !
 ! A127  A(20,66,67)           109.3079         calculate D2E/DX2 analytically  !
 ! A128  A(20,66,68)           111.7337         calculate D2E/DX2 analytically  !
 ! A129  A(20,66,69)           110.8396         calculate D2E/DX2 analytically  !
 ! A130  A(67,66,68)           108.1244         calculate D2E/DX2 analytically  !
 ! A131  A(67,66,69)           108.4087         calculate D2E/DX2 analytically  !
 ! A132  A(68,66,69)           108.3301         calculate D2E/DX2 analytically  !
 ! D1    D(6,1,2,3)              0.7572         calculate D2E/DX2 analytically  !
 ! D2    D(6,1,2,11)          -179.4156         calculate D2E/DX2 analytically  !
 ! D3    D(23,1,2,3)          -179.6506         calculate D2E/DX2 analytically  !
 ! D4    D(23,1,2,11)            0.1766         calculate D2E/DX2 analytically  !
 ! D5    D(2,1,6,5)             -0.4164         calculate D2E/DX2 analytically  !
 ! D6    D(2,1,6,25)           178.9705         calculate D2E/DX2 analytically  !
 ! D7    D(23,1,6,5)          -179.9198         calculate D2E/DX2 analytically  !
 ! D8    D(23,1,6,25)           -0.5329         calculate D2E/DX2 analytically  !
 ! D9    D(2,1,23,7)            -0.1715         calculate D2E/DX2 analytically  !
 ! D10   D(6,1,23,7)           179.3711         calculate D2E/DX2 analytically  !
 ! D11   D(1,2,3,4)             -0.5111         calculate D2E/DX2 analytically  !
 ! D12   D(1,2,3,8)            179.5806         calculate D2E/DX2 analytically  !
 ! D13   D(11,2,3,4)           179.7125         calculate D2E/DX2 analytically  !
 ! D14   D(11,2,3,8)            -0.1959         calculate D2E/DX2 analytically  !
 ! D15   D(1,2,11,7)            -0.0984         calculate D2E/DX2 analytically  !
 ! D16   D(3,2,11,7)           179.7016         calculate D2E/DX2 analytically  !
 ! D17   D(2,3,4,5)             -0.0492         calculate D2E/DX2 analytically  !
 ! D18   D(2,3,4,9)           -179.7736         calculate D2E/DX2 analytically  !
 ! D19   D(8,3,4,5)            179.8591         calculate D2E/DX2 analytically  !
 ! D20   D(8,3,4,9)              0.1347         calculate D2E/DX2 analytically  !
 ! D21   D(3,4,5,6)              0.3824         calculate D2E/DX2 analytically  !
 ! D22   D(3,4,5,10)          -179.5286         calculate D2E/DX2 analytically  !
 ! D23   D(9,4,5,6)           -179.8915         calculate D2E/DX2 analytically  !
 ! D24   D(9,4,5,10)             0.1975         calculate D2E/DX2 analytically  !
 ! D25   D(4,5,6,1)             -0.1363         calculate D2E/DX2 analytically  !
 ! D26   D(4,5,6,25)          -179.5327         calculate D2E/DX2 analytically  !
 ! D27   D(10,5,6,1)           179.7751         calculate D2E/DX2 analytically  !
 ! D28   D(10,5,6,25)            0.3786         calculate D2E/DX2 analytically  !
 ! D29   D(1,6,25,26)         -178.6332         calculate D2E/DX2 analytically  !
 ! D30   D(1,6,25,27)            0.9331         calculate D2E/DX2 analytically  !
 ! D31   D(5,6,25,26)            0.7347         calculate D2E/DX2 analytically  !
 ! D32   D(5,6,25,27)         -179.6989         calculate D2E/DX2 analytically  !
 ! D33   D(13,7,11,2)          179.8332         calculate D2E/DX2 analytically  !
 ! D34   D(23,7,11,2)           -0.0071         calculate D2E/DX2 analytically  !
 ! D35   D(11,7,13,12)          -1.2122         calculate D2E/DX2 analytically  !
 ! D36   D(11,7,13,14)         178.4824         calculate D2E/DX2 analytically  !
 ! D37   D(23,7,13,12)         178.609          calculate D2E/DX2 analytically  !
 ! D38   D(23,7,13,14)          -1.6965         calculate D2E/DX2 analytically  !
 ! D39   D(11,7,23,1)            0.114          calculate D2E/DX2 analytically  !
 ! D40   D(13,7,23,1)         -179.7149         calculate D2E/DX2 analytically  !
 ! D41   D(17,12,13,7)        -178.44           calculate D2E/DX2 analytically  !
 ! D42   D(17,12,13,14)          1.8585         calculate D2E/DX2 analytically  !
 ! D43   D(22,12,13,7)           1.7423         calculate D2E/DX2 analytically  !
 ! D44   D(22,12,13,14)       -177.9591         calculate D2E/DX2 analytically  !
 ! D45   D(13,12,17,16)         -1.9641         calculate D2E/DX2 analytically  !
 ! D46   D(13,12,17,21)        178.2567         calculate D2E/DX2 analytically  !
 ! D47   D(22,12,17,16)        177.8522         calculate D2E/DX2 analytically  !
 ! D48   D(22,12,17,21)         -1.927          calculate D2E/DX2 analytically  !
 ! D49   D(13,12,22,45)         -0.9728         calculate D2E/DX2 analytically  !
 ! D50   D(17,12,22,45)        179.2104         calculate D2E/DX2 analytically  !
 ! D51   D(7,13,14,15)         179.906          calculate D2E/DX2 analytically  !
 ! D52   D(7,13,14,18)          -0.1702         calculate D2E/DX2 analytically  !
 ! D53   D(12,13,14,15)         -0.4043         calculate D2E/DX2 analytically  !
 ! D54   D(12,13,14,18)        179.5195         calculate D2E/DX2 analytically  !
 ! D55   D(13,14,15,16)         -0.8405         calculate D2E/DX2 analytically  !
 ! D56   D(13,14,15,20)        178.6313         calculate D2E/DX2 analytically  !
 ! D57   D(18,14,15,16)        179.238          calculate D2E/DX2 analytically  !
 ! D58   D(18,14,15,20)         -1.2901         calculate D2E/DX2 analytically  !
 ! D59   D(14,15,16,17)          0.6896         calculate D2E/DX2 analytically  !
 ! D60   D(14,15,16,19)       -179.1725         calculate D2E/DX2 analytically  !
 ! D61   D(20,15,16,17)       -178.8071         calculate D2E/DX2 analytically  !
 ! D62   D(20,15,16,19)          1.3308         calculate D2E/DX2 analytically  !
 ! D63   D(14,15,20,58)        122.7967         calculate D2E/DX2 analytically  !
 ! D64   D(14,15,20,62)          2.0698         calculate D2E/DX2 analytically  !
 ! D65   D(14,15,20,66)       -118.2721         calculate D2E/DX2 analytically  !
 ! D66   D(16,15,20,58)        -57.7306         calculate D2E/DX2 analytically  !
 ! D67   D(16,15,20,62)       -178.4575         calculate D2E/DX2 analytically  !
 ! D68   D(16,15,20,66)         61.2006         calculate D2E/DX2 analytically  !
 ! D69   D(15,16,17,12)          0.7292         calculate D2E/DX2 analytically  !
 ! D70   D(15,16,17,21)       -179.4953         calculate D2E/DX2 analytically  !
 ! D71   D(19,16,17,12)       -179.4102         calculate D2E/DX2 analytically  !
 ! D72   D(19,16,17,21)          0.3653         calculate D2E/DX2 analytically  !
 ! D73   D(12,17,21,46)        -59.4499         calculate D2E/DX2 analytically  !
 ! D74   D(12,17,21,50)         61.6112         calculate D2E/DX2 analytically  !
 ! D75   D(12,17,21,54)       -178.7218         calculate D2E/DX2 analytically  !
 ! D76   D(16,17,21,46)        120.7842         calculate D2E/DX2 analytically  !
 ! D77   D(16,17,21,50)       -118.1547         calculate D2E/DX2 analytically  !
 ! D78   D(16,17,21,54)          1.5123         calculate D2E/DX2 analytically  !
 ! D79   D(15,20,58,59)         59.3132         calculate D2E/DX2 analytically  !
 ! D80   D(15,20,58,60)        178.8136         calculate D2E/DX2 analytically  !
 ! D81   D(15,20,58,61)        -61.7649         calculate D2E/DX2 analytically  !
 ! D82   D(62,20,58,59)       -177.8279         calculate D2E/DX2 analytically  !
 ! D83   D(62,20,58,60)        -58.3275         calculate D2E/DX2 analytically  !
 ! D84   D(62,20,58,61)         61.0939         calculate D2E/DX2 analytically  !
 ! D85   D(66,20,58,59)        -59.1155         calculate D2E/DX2 analytically  !
 ! D86   D(66,20,58,60)         60.3849         calculate D2E/DX2 analytically  !
 ! D87   D(66,20,58,61)        179.8063         calculate D2E/DX2 analytically  !
 ! D88   D(15,20,62,63)        -60.7244         calculate D2E/DX2 analytically  !
 ! D89   D(15,20,62,64)         60.7993         calculate D2E/DX2 analytically  !
 ! D90   D(15,20,62,65)       -179.9209         calculate D2E/DX2 analytically  !
 ! D91   D(58,20,62,63)        178.3147         calculate D2E/DX2 analytically  !
 ! D92   D(58,20,62,64)        -60.1616         calculate D2E/DX2 analytically  !
 ! D93   D(58,20,62,65)         59.1182         calculate D2E/DX2 analytically  !
 ! D94   D(66,20,62,63)         59.3675         calculate D2E/DX2 analytically  !
 ! D95   D(66,20,62,64)       -179.1088         calculate D2E/DX2 analytically  !
 ! D96   D(66,20,62,65)        -59.829          calculate D2E/DX2 analytically  !
 ! D97   D(15,20,66,67)       -178.3878         calculate D2E/DX2 analytically  !
 ! D98   D(15,20,66,68)        -58.7507         calculate D2E/DX2 analytically  !
 ! D99   D(15,20,66,69)         62.1797         calculate D2E/DX2 analytically  !
 ! D100  D(58,20,66,67)        -59.4957         calculate D2E/DX2 analytically  !
 ! D101  D(58,20,66,68)         60.1413         calculate D2E/DX2 analytically  !
 ! D102  D(58,20,66,69)       -178.9282         calculate D2E/DX2 analytically  !
 ! D103  D(62,20,66,67)         59.1578         calculate D2E/DX2 analytically  !
 ! D104  D(62,20,66,68)        178.7949         calculate D2E/DX2 analytically  !
 ! D105  D(62,20,66,69)        -60.2747         calculate D2E/DX2 analytically  !
 ! D106  D(17,21,46,47)         61.4426         calculate D2E/DX2 analytically  !
 ! D107  D(17,21,46,48)       -178.6501         calculate D2E/DX2 analytically  !
 ! D108  D(17,21,46,49)        -59.7002         calculate D2E/DX2 analytically  !
 ! D109  D(50,21,46,47)        -59.4667         calculate D2E/DX2 analytically  !
 ! D110  D(50,21,46,48)         60.4405         calculate D2E/DX2 analytically  !
 ! D111  D(50,21,46,49)        179.3905         calculate D2E/DX2 analytically  !
 ! D112  D(54,21,46,47)       -177.2736         calculate D2E/DX2 analytically  !
 ! D113  D(54,21,46,48)        -57.3663         calculate D2E/DX2 analytically  !
 ! D114  D(54,21,46,49)         61.5836         calculate D2E/DX2 analytically  !
 ! D115  D(17,21,50,51)        177.2754         calculate D2E/DX2 analytically  !
 ! D116  D(17,21,50,52)        -62.7054         calculate D2E/DX2 analytically  !
 ! D117  D(17,21,50,53)         58.2283         calculate D2E/DX2 analytically  !
 ! D118  D(46,21,50,51)        -61.7886         calculate D2E/DX2 analytically  !
 ! D119  D(46,21,50,52)         58.2307         calculate D2E/DX2 analytically  !
 ! D120  D(46,21,50,53)        179.1644         calculate D2E/DX2 analytically  !
 ! D121  D(54,21,50,51)         55.8072         calculate D2E/DX2 analytically  !
 ! D122  D(54,21,50,52)        175.8264         calculate D2E/DX2 analytically  !
 ! D123  D(54,21,50,53)        -63.2399         calculate D2E/DX2 analytically  !
 ! D124  D(17,21,54,55)        -61.7148         calculate D2E/DX2 analytically  !
 ! D125  D(17,21,54,56)         59.918          calculate D2E/DX2 analytically  !
 ! D126  D(17,21,54,57)        179.0126         calculate D2E/DX2 analytically  !
 ! D127  D(46,21,54,55)        177.8533         calculate D2E/DX2 analytically  !
 ! D128  D(46,21,54,56)        -60.5139         calculate D2E/DX2 analytically  !
 ! D129  D(46,21,54,57)         58.5807         calculate D2E/DX2 analytically  !
 ! D130  D(50,21,54,55)         58.8807         calculate D2E/DX2 analytically  !
 ! D131  D(50,21,54,56)       -179.4864         calculate D2E/DX2 analytically  !
 ! D132  D(50,21,54,57)        -60.3919         calculate D2E/DX2 analytically  !
 ! D133  D(6,25,27,24)           0.655          calculate D2E/DX2 analytically  !
 ! D134  D(6,25,27,28)        -179.4183         calculate D2E/DX2 analytically  !
 ! D135  D(26,25,27,24)       -179.773          calculate D2E/DX2 analytically  !
 ! D136  D(26,25,27,28)          0.1537         calculate D2E/DX2 analytically  !
 ! D137  D(24,27,28,29)        110.1752         calculate D2E/DX2 analytically  !
 ! D138  D(24,27,28,30)       -125.063          calculate D2E/DX2 analytically  !
 ! D139  D(24,27,28,31)         -7.2914         calculate D2E/DX2 analytically  !
 ! D140  D(25,27,28,29)        -69.7496         calculate D2E/DX2 analytically  !
 ! D141  D(25,27,28,30)         55.0122         calculate D2E/DX2 analytically  !
 ! D142  D(25,27,28,31)        172.7838         calculate D2E/DX2 analytically  !
 ! D143  D(27,28,29,32)       -178.0309         calculate D2E/DX2 analytically  !
 ! D144  D(27,28,29,33)         61.6439         calculate D2E/DX2 analytically  !
 ! D145  D(27,28,29,34)        -55.6903         calculate D2E/DX2 analytically  !
 ! D146  D(30,28,29,32)         57.1269         calculate D2E/DX2 analytically  !
 ! D147  D(30,28,29,33)        -63.1983         calculate D2E/DX2 analytically  !
 ! D148  D(30,28,29,34)        179.4676         calculate D2E/DX2 analytically  !
 ! D149  D(31,28,29,32)        -63.1013         calculate D2E/DX2 analytically  !
 ! D150  D(31,28,29,33)        176.5735         calculate D2E/DX2 analytically  !
 ! D151  D(31,28,29,34)         59.2393         calculate D2E/DX2 analytically  !
 ! D152  D(27,28,30,35)        178.0611         calculate D2E/DX2 analytically  !
 ! D153  D(27,28,30,36)        -62.1034         calculate D2E/DX2 analytically  !
 ! D154  D(27,28,30,37)         55.3939         calculate D2E/DX2 analytically  !
 ! D155  D(29,28,30,35)        -57.2886         calculate D2E/DX2 analytically  !
 ! D156  D(29,28,30,36)         62.547          calculate D2E/DX2 analytically  !
 ! D157  D(29,28,30,37)       -179.9558         calculate D2E/DX2 analytically  !
 ! D158  D(31,28,30,35)         62.8731         calculate D2E/DX2 analytically  !
 ! D159  D(31,28,30,36)       -177.2914         calculate D2E/DX2 analytically  !
 ! D160  D(31,28,30,37)        -59.7941         calculate D2E/DX2 analytically  !
 ! D161  D(28,29,32,38)        -55.9017         calculate D2E/DX2 analytically  !
 ! D162  D(28,29,32,39)       -178.7926         calculate D2E/DX2 analytically  !
 ! D163  D(28,29,32,40)         64.7329         calculate D2E/DX2 analytically  !
 ! D164  D(33,29,32,38)         63.714          calculate D2E/DX2 analytically  !
 ! D165  D(33,29,32,39)        -59.1769         calculate D2E/DX2 analytically  !
 ! D166  D(33,29,32,40)       -175.6514         calculate D2E/DX2 analytically  !
 ! D167  D(34,29,32,38)       -177.6099         calculate D2E/DX2 analytically  !
 ! D168  D(34,29,32,39)         59.4992         calculate D2E/DX2 analytically  !
 ! D169  D(34,29,32,40)        -56.9753         calculate D2E/DX2 analytically  !
 ! D170  D(28,30,35,38)         56.1083         calculate D2E/DX2 analytically  !
 ! D171  D(28,30,35,41)        178.7059         calculate D2E/DX2 analytically  !
 ! D172  D(28,30,35,42)        -64.7289         calculate D2E/DX2 analytically  !
 ! D173  D(36,30,35,38)        -63.685          calculate D2E/DX2 analytically  !
 ! D174  D(36,30,35,41)         58.9126         calculate D2E/DX2 analytically  !
 ! D175  D(36,30,35,42)        175.4778         calculate D2E/DX2 analytically  !
 ! D176  D(37,30,35,38)        177.8932         calculate D2E/DX2 analytically  !
 ! D177  D(37,30,35,41)        -59.5092         calculate D2E/DX2 analytically  !
 ! D178  D(37,30,35,42)         57.056          calculate D2E/DX2 analytically  !
 ! D179  D(29,32,38,35)         55.2395         calculate D2E/DX2 analytically  !
 ! D180  D(29,32,38,43)        177.6448         calculate D2E/DX2 analytically  !
 ! D181  D(29,32,38,44)        -65.1136         calculate D2E/DX2 analytically  !
 ! D182  D(39,32,38,35)        177.5106         calculate D2E/DX2 analytically  !
 ! D183  D(39,32,38,43)        -60.0841         calculate D2E/DX2 analytically  !
 ! D184  D(39,32,38,44)         57.1576         calculate D2E/DX2 analytically  !
 ! D185  D(40,32,38,35)        -65.1761         calculate D2E/DX2 analytically  !
 ! D186  D(40,32,38,43)         57.2292         calculate D2E/DX2 analytically  !
 ! D187  D(40,32,38,44)        174.4709         calculate D2E/DX2 analytically  !
 ! D188  D(30,35,38,32)        -55.2753         calculate D2E/DX2 analytically  !
 ! D189  D(30,35,38,43)       -177.7423         calculate D2E/DX2 analytically  !
 ! D190  D(30,35,38,44)         65.1467         calculate D2E/DX2 analytically  !
 ! D191  D(41,35,38,32)       -177.1517         calculate D2E/DX2 analytically  !
 ! D192  D(41,35,38,43)         60.3813         calculate D2E/DX2 analytically  !
 ! D193  D(41,35,38,44)        -56.7296         calculate D2E/DX2 analytically  !
 ! D194  D(42,35,38,32)         65.3926         calculate D2E/DX2 analytically  !
 ! D195  D(42,35,38,43)        -57.0744         calculate D2E/DX2 analytically  !
 ! D196  D(42,35,38,44)       -174.1853         calculate D2E/DX2 analytically  !
 --------------------------------------------------------------------------------
 Trust Radius=3.00D-01 FncErr=5.00D-06 GrdErr=5.00D-06 EigMax=2.50D+02 EigMin=1.00D-04
 Number of steps in this run=    410 maximum allowed number of steps=    414.
 Search for a saddle point of order  1.
 GradGradGradGradGradGradGradGradGradGradGradGradGradGradGradGradGradGrad

 Leave Link  103 at Fri Dec 21 13:56:31 2018, MaxMem=  1342177280 cpu:               0.5 elap:               0.1
 (Enter /gpfs/apps/hpc/Apps/Restricted/Gaussian/Rev_A.03/g16/l202.exe)
 Symmetry turned off by external request.
 Stoichiometry    C28H37N3O(1+,2)
 Framework group  C1[X(C28H37N3O)]
 Deg. of freedom   201
 Full point group                 C1      NOp   1
                          Input orientation:                          
 ---------------------------------------------------------------------
 Center     Atomic      Atomic             Coordinates (Angstroms)
 Number     Number       Type             X           Y           Z
 ---------------------------------------------------------------------
      1          6           0       -0.498147    2.638743    0.225698
      2          6           0       -1.923008    2.817001    0.174906
      3          6           0       -2.489444    4.096753    0.093960
      4          6           0       -1.628065    5.190551    0.075274
      5          6           0       -0.231169    5.034390    0.136012
      6          6           0        0.364842    3.768556    0.210522
      7          6           0       -1.416699    0.716940    0.286937
      8          1           0       -3.563281    4.230014    0.048930
      9          1           0       -2.039417    6.190472    0.016933
     10          1           0        0.402676    5.913131    0.126561
     11          7           0       -2.474418    1.573715    0.217262
     12          6           0       -3.036254   -1.166657    0.363550
     13          6           0       -1.652635   -0.697832    0.349800
     14          6           0       -0.606839   -1.621101    0.391016
     15          6           0       -0.867979   -2.983356    0.453502
     16          6           0       -2.231811   -3.418004    0.493095
     17          6           0       -3.316667   -2.576981    0.460006
     18          1           0        0.405954   -1.244697    0.371610
     19          1           0       -2.408962   -4.481484    0.555356
     20          6           0        0.228251   -4.038113    0.470184
     21          6           0       -4.757011   -3.090954    0.516199
     22          8           0       -4.007017   -0.307889    0.285015
     23          7           0       -0.193904    1.321928    0.293051
     24          1           0        1.775332    1.659195    0.333072
     25          6           0        1.785219    3.637640    0.281197
     26          1           0        2.400243    4.531087    0.288761
     27          7           0        2.384692    2.486501    0.345872
     28          6           0        3.845354    2.294524    0.432656
     29          6           0        4.532690    2.677622   -0.885722
     30          6           0        4.442830    3.064431    1.616875
     31          1           0        3.976204    1.223731    0.601854
     32          6           0        6.041593    2.423764   -0.787798
     33          1           0        4.346511    3.739914   -1.082254
     34          1           0        4.095147    2.108774   -1.709968
     35          6           0        5.951280    2.807156    1.709326
     36          1           0        4.269105    4.136851    1.471489
     37          1           0        3.935497    2.771123    2.539590
     38          6           0        6.661485    3.167968    0.399516
     39          1           0        6.524432    2.719617   -1.723238
     40          1           0        6.213289    1.347004   -0.669169
     41          1           0        6.366541    3.380097    2.543106
     42          1           0        6.121133    1.747632    1.935345
     43          1           0        7.728657    2.939253    0.474283
     44          1           0        6.576668    4.248791    0.231691
     45          1           0       -3.558353    0.709001    0.234381
     46          6           0       -5.479400   -2.491065    1.742903
     47          1           0       -5.529704   -1.404407    1.686730
     48          1           0       -6.499026   -2.882834    1.787441
     49          1           0       -4.966575   -2.770405    2.667018
     50          6           0       -5.501853   -2.700229   -0.779229
     51          1           0       -6.514188   -3.112056   -0.753030
     52          1           0       -5.571618   -1.618896   -0.890823
     53          1           0       -4.988483   -3.108660   -1.653440
     54          6           0       -4.795305   -4.621148    0.648703
     55          1           0       -4.332591   -5.118166   -0.208198
     56          1           0       -4.288646   -4.958371    1.556852
     57          1           0       -5.836114   -4.946411    0.703185
     58          6           0        0.076203   -4.908145    1.737646
     59          1           0       -0.895012   -5.405667    1.776182
     60          1           0        0.850475   -5.679900    1.740309
     61          1           0        0.188689   -4.303425    2.640467
     62          6           0        1.631345   -3.419311    0.461744
     63          1           0        1.798857   -2.815993   -0.433866
     64          1           0        1.796636   -2.790555    1.340113
     65          1           0        2.377252   -4.217231    0.472885
     66          6           0        0.067692   -4.929846   -0.782057
     67          1           0        0.831807   -5.711559   -0.769525
     68          1           0       -0.911481   -5.412382   -0.812012
     69          1           0        0.189560   -4.342879   -1.695403
 ---------------------------------------------------------------------
 Rotational constants (GHZ):           0.1847872           0.0711746           0.0537312
 Leave Link  202 at Fri Dec 21 13:56:31 2018, MaxMem=  1342177280 cpu:               0.4 elap:               0.0
 (Enter /gpfs/apps/hpc/Apps/Restricted/Gaussian/Rev_A.03/g16/l301.exe)
 Standard basis: 6-31G(d,p) (6D, 7F)
 Ernie: Thresh=  0.10000D-02 Tol=  0.10000D-05 Strict=F.
   665 basis functions,  1155 primitive gaussians,   665 cartesian basis functions
   117 alpha electrons      116 beta electrons
       nuclear repulsion energy      3167.5995299819 Hartrees.
 IExCor=  402 DFT=T Ex+Corr=B3LYP ExCW=0 ScaHFX=  0.200000
 ScaDFX=  0.800000  0.720000  1.000000  0.810000 ScalE2=  1.000000  1.000000
 IRadAn=      5 IRanWt=     -1 IRanGd=            0 ICorTp=0 IEmpDi=141
 NAtoms=   69 NActive=   69 NUniq=   69 SFac= 1.00D+00 NAtFMM=   60 NAOKFM=T Big=T
 Integral buffers will be    131072 words long.
 Raffenetti 2 integral format.
 Two-electron integral symmetry is turned off.
 R6Disp:  Grimme-D3(BJ) Dispersion energy=       -0.1493862963 Hartrees.
 Nuclear repulsion after empirical dispersion term =     3167.4501436856 Hartrees.
 Force inversion solution in PCM.
 Using the following non-standard input for PCM:
 radii=bondi
 dis
 rep
 cav
 --- end of non-standard input.
 Force inversion solution in PCM.
 ------------------------------------------------------------------------------
 Polarizable Continuum Model (PCM)
 =================================
 Model                : C-PCM.
 Atomic radii         : Bondi.
 Polarization charges : Total charges.
 Charge compensation  : None.
 Solution method      : Matrix inversion.
 Cavity type          : Scaled VdW (van der Waals Surface) (Alpha=1.100).
 Cavity algorithm     : GePol (No added spheres)
                        Default sphere list used, NSphG=   69.
                        Lebedev-Laikov grids with approx.  5.0 points / Ang**2.
                        Smoothing algorithm: York/Karplus (Gamma=1.0000).
                        Polarization charges: spherical gaussians, with
                                              point-specific exponents (IZeta= 3).
                        Self-potential: point-specific (ISelfS= 7).
                        Self-field    : sphere-specific E.n sum rule (ISelfD= 2).
 1st derivatives      : Analytical E(r).r(x)/FMM algorithm (CHGder, D1EAlg=3).
                        Cavity 1st derivative terms included.
 2nd derivatives      : Analytical E(r).r(xy)/FMM algorithm (CHGder, D2EAlg=3).
                        Cavity 2nd derivative terms included.
 Solvent              : Dichloromethane, Eps=   8.930000 Eps(inf)=   2.028346
 ------------------------------------------------------------------------------
 GePol: Number of generator spheres                  =      69
 GePol: Total number of spheres                      =      69
 GePol: Number of exposed spheres                    =      69 (100.00%)
 GePol: Number of points                             =    4315
 GePol: Average weight of points                     =       0.12
 GePol: Minimum weight of points                     =   0.56D-09
 GePol: Maximum weight of points                     =    0.21770
 GePol: Number of points with low weight             =     318
 GePol: Fraction of low-weight points (<1% of avg)   =       7.37%
 GePol: Cavity surface area                          =    518.548 Ang**2
 GePol: Cavity volume                                =    499.560 Ang**3
 PCM non-electrostatic energy =         0.0251823804 Hartrees.
 Nuclear repulsion after PCM non-electrostatic terms =     3167.4753260660 Hartrees.
 Leave Link  301 at Fri Dec 21 13:56:31 2018, MaxMem=  1342177280 cpu:               3.5 elap:               0.2
 (Enter /gpfs/apps/hpc/Apps/Restricted/Gaussian/Rev_A.03/g16/l302.exe)
 NPDir=0 NMtPBC=     1 NCelOv=     1 NCel=       1 NClECP=     1 NCelD=      1
         NCelK=      1 NCelE2=     1 NClLst=     1 CellRange=     0.0.
 One-electron integrals computed using PRISM.
 NBasis=   665 RedAO= T EigKep=  3.17D-04  NBF=   665
 NBsUse=   665 1.00D-06 EigRej= -1.00D+00 NBFU=   665
 Precomputing XC quadrature grid using
 IXCGrd= 4 IRadAn=           5 IRanWt=          -1 IRanGd=           0 AccXCQ= 0.00D+00.
 Generated NRdTot=       0 NPtTot=           0 NUsed=           0 NTot=          32
 NSgBfM=   647   647   647   647   647 MxSgAt=    69 MxSgA2=    69.
 Leave Link  302 at Fri Dec 21 13:56:33 2018, MaxMem=  1342177280 cpu:              18.9 elap:               1.3
 (Enter /gpfs/apps/hpc/Apps/Restricted/Gaussian/Rev_A.03/g16/l303.exe)
 DipDrv:  MaxL=1.
 Leave Link  303 at Fri Dec 21 13:56:33 2018, MaxMem=  1342177280 cpu:               1.3 elap:               0.1
 (Enter /gpfs/apps/hpc/Apps/Restricted/Gaussian/Rev_A.03/g16/l401.exe)
 ExpMin= 1.61D-01 ExpMax= 5.48D+03 ExpMxC= 8.25D+02 IAcc=3 IRadAn=         5 AccDes= 0.00D+00
 Harris functional with IExCor=  402 and IRadAn=       5 diagonalized for initial guess.
 HarFok:  IExCor=  402 AccDes= 0.00D+00 IRadAn=         5 IDoV= 1 UseB2=F ITyADJ=14
 ICtDFT=  3500011 ScaDFX=  1.000000  1.000000  1.000000  1.000000
 FoFCou: FMM=F IPFlag=           0 FMFlag=      100000 FMFlg1=        2001
         NFxFlg=           0 DoJE=T BraDBF=F KetDBF=T FulRan=T
         wScrn=  0.000000 ICntrl=       500 IOpCl=  0 I1Cent=   200000004 NGrid=           0
         NMat0=    1 NMatS0=      1 NMatT0=    0 NMatD0=    1 NMtDS0=    0 NMtDT0=    0
 Symmetry not used in FoFCou.
 Harris En= -1328.77217674797    
 JPrj=0 DoOrth=F DoCkMO=F.
 Initial guess <Sx>= 0.0000 <Sy>= 0.0000 <Sz>= 0.5000 <S**2>= 0.7500 S= 0.5000
 Leave Link  401 at Fri Dec 21 13:56:37 2018, MaxMem=  1342177280 cpu:              58.2 elap:               3.7
 (Enter /gpfs/apps/hpc/Apps/Restricted/Gaussian/Rev_A.03/g16/l502.exe)
 Two-electron integral symmetry not used.
 UHF open shell SCF:
 Using DIIS extrapolation, IDIIS=  1040.
 NGot=  1342177280 LenX=  1341276554 LenY=  1340833664
 Requested convergence on RMS density matrix=1.00D-08 within 128 cycles.
 Requested convergence on MAX density matrix=1.00D-06.
 Requested convergence on             energy=1.00D-06.
 No special actions if energy rises.
 Fock matrices will be formed incrementally for  20 cycles.

 Cycle   1  Pass 1  IDiag  1:
 FoFJK:  IHMeth= 1 ICntrl=       0 DoSepK=F KAlg= 0 I1Cent=           0 FoldK=F
 IRaf= 760000000 NMat=       1 IRICut=       1 DoRegI=T DoRafI=F ISym2E= 0 IDoP0=0 IntGTp=1.
 FoFCou: FMM=T IPFlag=           0 FMFlag=      100000 FMFlg1=        2001
         NFxFlg=           0 DoJE=F BraDBF=F KetDBF=F FulRan=T
         wScrn=  0.000000 ICntrl=         0 IOpCl=  1 I1Cent=           0 NGrid=           0
         NMat0=    1 NMatS0=      1 NMatT0=    0 NMatD0=    1 NMtDS0=    0 NMtDT0=    0
 Symmetry not used in FoFCou.
 FMM levels:  10  Number of levels for PrismC:   9
 Inv3:  Mode=1 IEnd=    55857675.
 Iteration    1 A*A^-1 deviation from unit magnitude is 1.18D-14 for    934.
 Iteration    1 A*A^-1 deviation from orthogonality  is 5.18D-15 for   3506    918.
 Iteration    1 A^-1*A deviation from unit magnitude is 9.77D-15 for    934.
 Iteration    1 A^-1*A deviation from orthogonality  is 3.36D-15 for   3796   3331.
 E= -1328.01279128669    
 DIIS: error= 2.92D-02 at cycle   1 NSaved=   1.
 NSaved= 1 IEnMin= 1 EnMin= -1328.01279128669     IErMin= 1 ErrMin= 2.92D-02
 ErrMax= 2.92D-02  0.00D+00 EMaxC= 1.00D-01 BMatC= 3.03D+00 BMatP= 3.03D+00
 IDIUse=3 WtCom= 7.08D-01 WtEn= 2.92D-01
 Coeff-Com:  0.100D+01
 Coeff-En:   0.100D+01
 Coeff:      0.100D+01
 Gap=     0.110 Goal=   None    Shift=    0.000
 Gap=     0.062 Goal=   None    Shift=    0.000
 GapD=    0.062 DampG=0.500 DampE=0.500 DampFc=0.2500 IDamp=-1.
 Damping current iteration by 2.50D-01
 RMSDP=3.04D-03 MaxDP=1.54D-01              OVMax= 2.91D-01

 Cycle   2  Pass 1  IDiag  1:
 RMSU=  7.39D-04    CP:  9.85D-01
 E= -1328.30077355923     Delta-E=       -0.287982272535 Rises=F Damp=T
 DIIS: error= 1.58D-02 at cycle   2 NSaved=   2.
 NSaved= 2 IEnMin= 2 EnMin= -1328.30077355923     IErMin= 2 ErrMin= 1.58D-02
 ErrMax= 1.58D-02  0.00D+00 EMaxC= 1.00D-01 BMatC= 8.05D-01 BMatP= 3.03D+00
 IDIUse=3 WtCom= 8.42D-01 WtEn= 1.58D-01
 Coeff-Com: -0.867D+00 0.187D+01
 Coeff-En:   0.000D+00 0.100D+01
 Coeff:     -0.730D+00 0.173D+01
 Gap=     0.147 Goal=   None    Shift=    0.000
 Gap=     0.063 Goal=   None    Shift=    0.000
 RMSDP=1.14D-03 MaxDP=8.13D-02 DE=-2.88D-01 OVMax= 1.93D-01

 Cycle   3  Pass 1  IDiag  1:
 RMSU=  7.66D-04    CP:  9.56D-01  2.04D+00
 E= -1328.78760197318     Delta-E=       -0.486828413955 Rises=F Damp=F
 DIIS: error= 4.51D-03 at cycle   3 NSaved=   3.
 NSaved= 3 IEnMin= 3 EnMin= -1328.78760197318     IErMin= 3 ErrMin= 4.51D-03
 ErrMax= 4.51D-03  0.00D+00 EMaxC= 1.00D-01 BMatC= 8.31D-02 BMatP= 8.05D-01
 IDIUse=3 WtCom= 9.55D-01 WtEn= 4.51D-02
 Coeff-Com: -0.302D+00 0.666D+00 0.636D+00
 Coeff-En:   0.000D+00 0.000D+00 0.100D+01
 Coeff:     -0.288D+00 0.636D+00 0.652D+00
 Gap=     0.124 Goal=   None    Shift=    0.000
 Gap=     0.060 Goal=   None    Shift=    0.000
 RMSDP=3.80D-04 MaxDP=3.50D-02 DE=-4.87D-01 OVMax= 7.90D-02

 Cycle   4  Pass 1  IDiag  1:
 RMSU=  3.11D-04    CP:  9.59D-01  2.03D+00  7.19D-01
 E= -1328.79965160981     Delta-E=       -0.012049636631 Rises=F Damp=F
 DIIS: error= 3.91D-03 at cycle   4 NSaved=   4.
 NSaved= 4 IEnMin= 4 EnMin= -1328.79965160981     IErMin= 4 ErrMin= 3.91D-03
 ErrMax= 3.91D-03  0.00D+00 EMaxC= 1.00D-01 BMatC= 4.03D-02 BMatP= 8.31D-02
 IDIUse=3 WtCom= 9.61D-01 WtEn= 3.91D-02
 Coeff-Com: -0.395D-01 0.105D+00 0.407D+00 0.527D+00
 Coeff-En:   0.000D+00 0.000D+00 0.324D+00 0.676D+00
 Coeff:     -0.379D-01 0.101D+00 0.403D+00 0.533D+00
 Gap=     0.126 Goal=   None    Shift=    0.000
 Gap=     0.061 Goal=   None    Shift=    0.000
 RMSDP=1.69D-04 MaxDP=1.45D-02 DE=-1.20D-02 OVMax= 2.79D-02

 Cycle   5  Pass 1  IDiag  1:
 RMSU=  9.16D-05    CP:  9.58D-01  2.01D+00  8.08D-01  6.04D-01
 E= -1328.80885875095     Delta-E=       -0.009207141136 Rises=F Damp=F
 DIIS: error= 8.91D-04 at cycle   5 NSaved=   5.
 NSaved= 5 IEnMin= 5 EnMin= -1328.80885875095     IErMin= 5 ErrMin= 8.91D-04
 ErrMax= 8.91D-04  0.00D+00 EMaxC= 1.00D-01 BMatC= 2.60D-03 BMatP= 4.03D-02
 IDIUse=3 WtCom= 9.91D-01 WtEn= 8.91D-03
 Coeff-Com:  0.524D-02-0.137D-02 0.163D+00 0.285D+00 0.549D+00
 Coeff-En:   0.000D+00 0.000D+00 0.000D+00 0.000D+00 0.100D+01
 Coeff:      0.519D-02-0.136D-02 0.161D+00 0.282D+00 0.553D+00
 Gap=     0.125 Goal=   None    Shift=    0.000
 Gap=     0.063 Goal=   None    Shift=    0.000
 RMSDP=4.91D-05 MaxDP=6.63D-03 DE=-9.21D-03 OVMax= 1.45D-02

 Cycle   6  Pass 1  IDiag  1:
 RMSU=  3.54D-05    CP:  9.58D-01  2.01D+00  8.17D-01  6.41D-01  6.61D-01
 E= -1328.80945588169     Delta-E=       -0.000597130737 Rises=F Damp=F
 DIIS: error= 2.94D-04 at cycle   6 NSaved=   6.
 NSaved= 6 IEnMin= 6 EnMin= -1328.80945588169     IErMin= 6 ErrMin= 2.94D-04
 ErrMax= 2.94D-04  0.00D+00 EMaxC= 1.00D-01 BMatC= 2.47D-04 BMatP= 2.60D-03
 IDIUse=3 WtCom= 9.97D-01 WtEn= 2.94D-03
 Coeff-Com:  0.600D-02-0.892D-02 0.549D-01 0.105D+00 0.297D+00 0.546D+00
 Coeff-En:   0.000D+00 0.000D+00 0.000D+00 0.000D+00 0.000D+00 0.100D+01
 Coeff:      0.598D-02-0.889D-02 0.547D-01 0.105D+00 0.296D+00 0.547D+00
 Gap=     0.126 Goal=   None    Shift=    0.000
 Gap=     0.063 Goal=   None    Shift=    0.000
 RMSDP=1.68D-05 MaxDP=1.72D-03 DE=-5.97D-04 OVMax= 6.13D-03

 Cycle   7  Pass 1  IDiag  1:
 RMSU=  1.48D-05    CP:  9.58D-01  2.02D+00  8.18D-01  6.50D-01  7.36D-01
                    CP:  9.66D-01
 E= -1328.80952618093     Delta-E=       -0.000070299242 Rises=F Damp=F
 DIIS: error= 2.36D-04 at cycle   7 NSaved=   7.
 NSaved= 7 IEnMin= 7 EnMin= -1328.80952618093     IErMin= 7 ErrMin= 2.36D-04
 ErrMax= 2.36D-04  0.00D+00 EMaxC= 1.00D-01 BMatC= 4.10D-05 BMatP= 2.47D-04
 IDIUse=3 WtCom= 9.98D-01 WtEn= 2.36D-03
 Coeff-Com:  0.217D-02-0.424D-02-0.793D-03-0.675D-03 0.546D-01 0.270D+00
 Coeff-Com:  0.679D+00
 Coeff-En:   0.000D+00 0.000D+00 0.000D+00 0.000D+00 0.000D+00 0.000D+00
 Coeff-En:   0.100D+01
 Coeff:      0.217D-02-0.423D-02-0.791D-03-0.674D-03 0.544D-01 0.269D+00
 Coeff:      0.680D+00
 Gap=     0.126 Goal=   None    Shift=    0.000
 Gap=     0.064 Goal=   None    Shift=    0.000
 RMSDP=1.24D-05 MaxDP=1.48D-03 DE=-7.03D-05 OVMax= 8.29D-03

 Cycle   8  Pass 1  IDiag  1:
 RMSU=  8.19D-06    CP:  9.58D-01  2.02D+00  8.19D-01  6.55D-01  7.81D-01
                    CP:  1.19D+00  1.05D+00
 E= -1328.80955388360     Delta-E=       -0.000027702675 Rises=F Damp=F
 DIIS: error= 1.05D-04 at cycle   8 NSaved=   8.
 NSaved= 8 IEnMin= 8 EnMin= -1328.80955388360     IErMin= 8 ErrMin= 1.05D-04
 ErrMax= 1.05D-04  0.00D+00 EMaxC= 1.00D-01 BMatC= 1.61D-05 BMatP= 4.10D-05
 IDIUse=3 WtCom= 9.99D-01 WtEn= 1.05D-03
 Coeff-Com: -0.891D-03 0.101D-02-0.195D-01-0.411D-01-0.798D-01-0.970D-01
 Coeff-Com:  0.364D+00 0.873D+00
 Coeff-En:   0.000D+00 0.000D+00 0.000D+00 0.000D+00 0.000D+00 0.000D+00
 Coeff-En:   0.000D+00 0.100D+01
 Coeff:     -0.890D-03 0.101D-02-0.195D-01-0.411D-01-0.797D-01-0.969D-01
 Coeff:      0.364D+00 0.873D+00
 Gap=     0.126 Goal=   None    Shift=    0.000
 Gap=     0.064 Goal=   None    Shift=    0.000
 RMSDP=1.17D-05 MaxDP=1.50D-03 DE=-2.77D-05 OVMax= 8.62D-03

 Cycle   9  Pass 1  IDiag  1:
 RMSU=  4.33D-06    CP:  9.58D-01  2.02D+00  8.20D-01  6.62D-01  8.23D-01
                    CP:  1.39D+00  1.50D+00  1.29D+00
 E= -1328.80957008729     Delta-E=       -0.000016203685 Rises=F Damp=F
 DIIS: error= 6.49D-05 at cycle   9 NSaved=   9.
 NSaved= 9 IEnMin= 9 EnMin= -1328.80957008729     IErMin= 9 ErrMin= 6.49D-05
 ErrMax= 6.49D-05  0.00D+00 EMaxC= 1.00D-01 BMatC= 5.83D-06 BMatP= 1.61D-05
 IDIUse=1 WtCom= 1.00D+00 WtEn= 0.00D+00
 Coeff-Com: -0.106D-02 0.171D-02-0.121D-01-0.273D-01-0.694D-01-0.166D+00
 Coeff-Com:  0.242D-01 0.545D+00 0.705D+00
 Coeff:     -0.106D-02 0.171D-02-0.121D-01-0.273D-01-0.694D-01-0.166D+00
 Coeff:      0.242D-01 0.545D+00 0.705D+00
 Gap=     0.127 Goal=   None    Shift=    0.000
 Gap=     0.064 Goal=   None    Shift=    0.000
 RMSDP=7.29D-06 MaxDP=7.80D-04 DE=-1.62D-05 OVMax= 5.26D-03

 Cycle  10  Pass 1  IDiag  1:
 RMSU=  2.28D-06    CP:  9.58D-01  2.02D+00  8.20D-01  6.65D-01  8.46D-01
                    CP:  1.52D+00  1.72D+00  1.69D+00  9.99D-01
 E= -1328.80957558445     Delta-E=       -0.000005497161 Rises=F Damp=F
 DIIS: error= 2.62D-05 at cycle  10 NSaved=  10.
 NSaved=10 IEnMin=10 EnMin= -1328.80957558445     IErMin=10 ErrMin= 2.62D-05
 ErrMax= 2.62D-05  0.00D+00 EMaxC= 1.00D-01 BMatC= 1.23D-06 BMatP= 5.83D-06
 IDIUse=1 WtCom= 1.00D+00 WtEn= 0.00D+00
 Coeff-Com: -0.114D-03 0.320D-03-0.379D-03-0.221D-02-0.994D-02-0.544D-01
 Coeff-Com: -0.641D-01 0.167D-01 0.329D+00 0.785D+00
 Coeff:     -0.114D-03 0.320D-03-0.379D-03-0.221D-02-0.994D-02-0.544D-01
 Coeff:     -0.641D-01 0.167D-01 0.329D+00 0.785D+00
 Gap=     0.127 Goal=   None    Shift=    0.000
 Gap=     0.064 Goal=   None    Shift=    0.000
 RMSDP=3.29D-06 MaxDP=3.60D-04 DE=-5.50D-06 OVMax= 2.32D-03

 Cycle  11  Pass 1  IDiag  1:
 RMSU=  1.22D-06    CP:  9.58D-01  2.02D+00  8.20D-01  6.65D-01  8.56D-01
                    CP:  1.57D+00  1.82D+00  1.84D+00  1.29D+00  1.18D+00
 E= -1328.80957684606     Delta-E=       -0.000001261616 Rises=F Damp=F
 DIIS: error= 1.39D-05 at cycle  11 NSaved=  11.
 NSaved=11 IEnMin=11 EnMin= -1328.80957684606     IErMin=11 ErrMin= 1.39D-05
 ErrMax= 1.39D-05  0.00D+00 EMaxC= 1.00D-01 BMatC= 4.00D-07 BMatP= 1.23D-06
 IDIUse=1 WtCom= 1.00D+00 WtEn= 0.00D+00
 Coeff-Com:  0.278D-03-0.358D-03 0.398D-02 0.800D-02 0.187D-01 0.255D-01
 Coeff-Com: -0.364D-01-0.184D+00-0.566D-01 0.422D+00 0.800D+00
 Coeff:      0.278D-03-0.358D-03 0.398D-02 0.800D-02 0.187D-01 0.255D-01
 Coeff:     -0.364D-01-0.184D+00-0.566D-01 0.422D+00 0.800D+00
 Gap=     0.127 Goal=   None    Shift=    0.000
 Gap=     0.064 Goal=   None    Shift=    0.000
 RMSDP=1.97D-06 MaxDP=3.05D-04 DE=-1.26D-06 OVMax= 1.29D-03

 Cycle  12  Pass 1  IDiag  1:
 RMSU=  5.70D-07    CP:  9.58D-01  2.02D+00  8.21D-01  6.66D-01  8.60D-01
                    CP:  1.59D+00  1.88D+00  1.94D+00  1.46D+00  1.57D+00
                    CP:  1.16D+00
 E= -1328.80957729221     Delta-E=       -0.000000446144 Rises=F Damp=F
 DIIS: error= 5.70D-06 at cycle  12 NSaved=  12.
 NSaved=12 IEnMin=12 EnMin= -1328.80957729221     IErMin=12 ErrMin= 5.70D-06
 ErrMax= 5.70D-06  0.00D+00 EMaxC= 1.00D-01 BMatC= 6.67D-08 BMatP= 4.00D-07
 IDIUse=1 WtCom= 1.00D+00 WtEn= 0.00D+00
 Coeff-Com:  0.101D-03-0.194D-03 0.107D-02 0.253D-02 0.799D-02 0.228D-01
 Coeff-Com:  0.124D-01-0.509D-01-0.110D+00-0.148D+00 0.216D+00 0.105D+01
 Coeff:      0.101D-03-0.194D-03 0.107D-02 0.253D-02 0.799D-02 0.228D-01
 Coeff:      0.124D-01-0.509D-01-0.110D+00-0.148D+00 0.216D+00 0.105D+01
 Gap=     0.127 Goal=   None    Shift=    0.000
 Gap=     0.064 Goal=   None    Shift=    0.000
 RMSDP=1.09D-06 MaxDP=1.92D-04 DE=-4.46D-07 OVMax= 6.43D-04

 Cycle  13  Pass 1  IDiag  1:
 RMSU=  2.89D-07    CP:  9.58D-01  2.02D+00  8.21D-01  6.67D-01  8.62D-01
                    CP:  1.60D+00  1.90D+00  1.99D+00  1.55D+00  1.80D+00
                    CP:  1.53D+00  1.28D+00
 E= -1328.80957739935     Delta-E=       -0.000000107142 Rises=F Damp=F
 DIIS: error= 3.03D-06 at cycle  13 NSaved=  13.
 NSaved=13 IEnMin=13 EnMin= -1328.80957739935     IErMin=13 ErrMin= 3.03D-06
 ErrMax= 3.03D-06  0.00D+00 EMaxC= 1.00D-01 BMatC= 2.33D-08 BMatP= 6.67D-08
 IDIUse=1 WtCom= 1.00D+00 WtEn= 0.00D+00
 Coeff-Com:  0.769D-05-0.430D-04-0.251D-04 0.149D-03 0.150D-02 0.846D-02
 Coeff-Com:  0.108D-01 0.398D-03-0.509D-01-0.148D+00-0.873D-02 0.552D+00
 Coeff-Com:  0.635D+00
 Coeff:      0.769D-05-0.430D-04-0.251D-04 0.149D-03 0.150D-02 0.846D-02
 Coeff:      0.108D-01 0.398D-03-0.509D-01-0.148D+00-0.873D-02 0.552D+00
 Coeff:      0.635D+00
 Gap=     0.127 Goal=   None    Shift=    0.000
 Gap=     0.064 Goal=   None    Shift=    0.000
 RMSDP=3.49D-07 MaxDP=5.63D-05 DE=-1.07D-07 OVMax= 1.82D-04

 Cycle  14  Pass 1  IDiag  1:
 RMSU=  1.43D-07    CP:  9.58D-01  2.02D+00  8.21D-01  6.67D-01  8.62D-01
                    CP:  1.61D+00  1.91D+00  2.00D+00  1.58D+00  1.86D+00
                    CP:  1.63D+00  1.49D+00  9.29D-01
 E= -1328.80957741363     Delta-E=       -0.000000014281 Rises=F Damp=F
 DIIS: error= 1.34D-06 at cycle  14 NSaved=  14.
 NSaved=14 IEnMin=14 EnMin= -1328.80957741363     IErMin=14 ErrMin= 1.34D-06
 ErrMax= 1.34D-06  0.00D+00 EMaxC= 1.00D-01 BMatC= 4.70D-09 BMatP= 2.33D-08
 IDIUse=1 WtCom= 1.00D+00 WtEn= 0.00D+00
 Coeff-Com: -0.332D-04 0.460D-04-0.360D-03-0.761D-03-0.172D-02-0.214D-02
 Coeff-Com:  0.248D-02 0.178D-01 0.576D-02-0.391D-01-0.646D-01-0.257D-02
 Coeff-Com:  0.324D+00 0.761D+00
 Coeff:     -0.332D-04 0.460D-04-0.360D-03-0.761D-03-0.172D-02-0.214D-02
 Coeff:      0.248D-02 0.178D-01 0.576D-02-0.391D-01-0.646D-01-0.257D-02
 Coeff:      0.324D+00 0.761D+00
 Gap=     0.127 Goal=   None    Shift=    0.000
 Gap=     0.064 Goal=   None    Shift=    0.000
 RMSDP=1.42D-07 MaxDP=2.62D-05 DE=-1.43D-08 OVMax= 7.33D-05

 Cycle  15  Pass 1  IDiag  1:
 RMSU=  6.43D-08    CP:  9.58D-01  2.02D+00  8.21D-01  6.67D-01  8.62D-01
                    CP:  1.61D+00  1.91D+00  2.01D+00  1.59D+00  1.88D+00
                    CP:  1.67D+00  1.59D+00  1.19D+00  9.89D-01
 E= -1328.80957741684     Delta-E=       -0.000000003211 Rises=F Damp=F
 DIIS: error= 6.29D-07 at cycle  15 NSaved=  15.
 NSaved=15 IEnMin=15 EnMin= -1328.80957741684     IErMin=15 ErrMin= 6.29D-07
 ErrMax= 6.29D-07  0.00D+00 EMaxC= 1.00D-01 BMatC= 1.09D-09 BMatP= 4.70D-09
 IDIUse=1 WtCom= 1.00D+00 WtEn= 0.00D+00
 Coeff-Com: -0.128D-04 0.222D-04-0.152D-03-0.354D-03-0.100D-02-0.219D-02
 Coeff-Com: -0.110D-02 0.753D-02 0.105D-01 0.524D-02-0.268D-01-0.863D-01
 Coeff-Com:  0.318D-01 0.368D+00 0.695D+00
 Coeff:     -0.128D-04 0.222D-04-0.152D-03-0.354D-03-0.100D-02-0.219D-02
 Coeff:     -0.110D-02 0.753D-02 0.105D-01 0.524D-02-0.268D-01-0.863D-01
 Coeff:      0.318D-01 0.368D+00 0.695D+00
 Gap=     0.127 Goal=   None    Shift=    0.000
 Gap=     0.064 Goal=   None    Shift=    0.000
 RMSDP=6.97D-08 MaxDP=8.06D-06 DE=-3.21D-09 OVMax= 3.16D-05

 Cycle  16  Pass 1  IDiag  1:
 RMSU=  3.71D-08    CP:  9.58D-01  2.02D+00  8.21D-01  6.67D-01  8.62D-01
                    CP:  1.61D+00  1.91D+00  2.01D+00  1.59D+00  1.88D+00
                    CP:  1.69D+00  1.62D+00  1.27D+00  1.19D+00  9.68D-01
 E= -1328.80957741738     Delta-E=       -0.000000000538 Rises=F Damp=F
 DIIS: error= 4.75D-07 at cycle  16 NSaved=  16.
 NSaved=16 IEnMin=16 EnMin= -1328.80957741738     IErMin=16 ErrMin= 4.75D-07
 ErrMax= 4.75D-07  0.00D+00 EMaxC= 1.00D-01 BMatC= 3.78D-10 BMatP= 1.09D-09
 IDIUse=1 WtCom= 1.00D+00 WtEn= 0.00D+00
 Coeff-Com:  0.615D-05-0.555D-05 0.465D-04 0.708D-04 0.302D-04-0.445D-03
 Coeff-Com: -0.159D-02-0.201D-02 0.449D-02 0.185D-01 0.906D-02-0.526D-01
 Coeff-Com: -0.119D+00-0.548D-01 0.454D+00 0.745D+00
 Coeff:      0.615D-05-0.555D-05 0.465D-04 0.708D-04 0.302D-04-0.445D-03
 Coeff:     -0.159D-02-0.201D-02 0.449D-02 0.185D-01 0.906D-02-0.526D-01
 Coeff:     -0.119D+00-0.548D-01 0.454D+00 0.745D+00
 Gap=     0.127 Goal=   None    Shift=    0.000
 Gap=     0.064 Goal=   None    Shift=    0.000
 RMSDP=3.98D-08 MaxDP=4.89D-06 DE=-5.38D-10 OVMax= 1.66D-05

 Cycle  17  Pass 1  IDiag  1:
 RMSU=  1.43D-08    CP:  9.58D-01  2.02D+00  8.21D-01  6.67D-01  8.62D-01
                    CP:  1.61D+00  1.91D+00  2.01D+00  1.59D+00  1.89D+00
                    CP:  1.69D+00  1.64D+00  1.32D+00  1.31D+00  1.30D+00
                    CP:  9.06D-01
 E= -1328.80957741761     Delta-E=       -0.000000000226 Rises=F Damp=F
 DIIS: error= 1.71D-07 at cycle  17 NSaved=  17.
 NSaved=17 IEnMin=17 EnMin= -1328.80957741761     IErMin=17 ErrMin= 1.71D-07
 ErrMax= 1.71D-07  0.00D+00 EMaxC= 1.00D-01 BMatC= 4.26D-11 BMatP= 3.78D-10
 IDIUse=1 WtCom= 1.00D+00 WtEn= 0.00D+00
 Coeff-Com:  0.469D-05-0.561D-05 0.399D-04 0.755D-04 0.131D-03 0.796D-04
 Coeff-Com: -0.630D-03-0.182D-02 0.694D-03 0.756D-02 0.649D-02-0.129D-01
 Coeff-Com: -0.606D-01-0.653D-01 0.124D+00 0.322D+00 0.680D+00
 Coeff:      0.469D-05-0.561D-05 0.399D-04 0.755D-04 0.131D-03 0.796D-04
 Coeff:     -0.630D-03-0.182D-02 0.694D-03 0.756D-02 0.649D-02-0.129D-01
 Coeff:     -0.606D-01-0.653D-01 0.124D+00 0.322D+00 0.680D+00
 Gap=     0.127 Goal=   None    Shift=    0.000
 Gap=     0.064 Goal=   None    Shift=    0.000
 RMSDP=1.46D-08 MaxDP=1.58D-06 DE=-2.26D-10 OVMax= 6.97D-06

 Cycle  18  Pass 1  IDiag  1:
 RMSU=  7.14D-09    CP:  9.58D-01  2.02D+00  8.21D-01  6.67D-01  8.62D-01
                    CP:  1.61D+00  1.91D+00  2.01D+00  1.59D+00  1.89D+00
                    CP:  1.69D+00  1.64D+00  1.34D+00  1.34D+00  1.36D+00
                    CP:  1.05D+00  1.04D+00
 E= -1328.80957741759     Delta-E=        0.000000000017 Rises=F Damp=F
 DIIS: error= 1.02D-07 at cycle  18 NSaved=  18.
 NSaved=18 IEnMin=17 EnMin= -1328.80957741761     IErMin=18 ErrMin= 1.02D-07
 ErrMax= 1.02D-07  0.00D+00 EMaxC= 1.00D-01 BMatC= 1.49D-11 BMatP= 4.26D-11
 IDIUse=1 WtCom= 1.00D+00 WtEn= 0.00D+00
 Coeff-Com:  0.956D-06-0.175D-05 0.825D-05 0.198D-04 0.632D-04 0.189D-03
 Coeff-Com:  0.150D-03-0.352D-03-0.104D-02-0.144D-02 0.670D-03 0.102D-01
 Coeff-Com:  0.241D-02-0.178D-01-0.743D-01-0.567D-01 0.404D+00 0.734D+00
 Coeff:      0.956D-06-0.175D-05 0.825D-05 0.198D-04 0.632D-04 0.189D-03
 Coeff:      0.150D-03-0.352D-03-0.104D-02-0.144D-02 0.670D-03 0.102D-01
 Coeff:      0.241D-02-0.178D-01-0.743D-01-0.567D-01 0.404D+00 0.734D+00
 Gap=     0.127 Goal=   None    Shift=    0.000
 Gap=     0.064 Goal=   None    Shift=    0.000
 RMSDP=7.61D-09 MaxDP=1.10D-06 DE= 1.73D-11 OVMax= 3.07D-06

 Cycle  19  Pass 1  IDiag  1:
[...]
 0.00006192,-0.00012058,0.00015560,-0.00020172,-0.00031203,0.00007431,0
 .00011329,0.00094795,0.00027316,0.00076804,-0.00006100,-0.00004300,-0.
 00001854,-0.00011885,0.00036043,0.00006751,-0.00076699,-0.00000625,-0.
 00033633,0.13581775,-0.18450826,0.00538919,-0.14857550,0.19977462,0.00
 037176,-0.00058382,0.00004055,-0.00041118,-0.00055246,0.00002421,-0.00
 006241,0.00043565,-0.00000588,-0.00059772,-0.00024649,-0.00001340,0.00
 054885,-0.00038296,0.00003648,-0.00005897,0.00034865,-0.00001645,-0.00
 014483,-0.00087617,-0.00000975,0.00002475,-0.00000566,0.00000174,-0.00
 000012,-0.00001808,-0.00000376,-0.00000795,-0.00001237,0.00000139,-0.0
 0007687,0.00054872,-0.00009972,-0.00032198,-0.00008987,-0.00001157,-0.
 00045723,0.00082444,0.00040623,0.00143397,-0.00181082,0.00052000,-0.00
 223509,-0.00120159,-0.00373459,0.00048324,-0.00017216,0.00009638,-0.00
 022206,0.00033442,-0.00000234,0.00000190,0.00000068,-0.00017173,-0.000
 08983,0.00009519,0.00006098,0.01916080,-0.02101204,-0.00328694,-0.0000
 1768,-0.00002964,-0.00005994,0.00017152,-0.00005623,0.00002984,0.00029
 014,0.00061193,-0.00002366,0.00004950,-0.00001257,-0.00000052,0.000259
 46,-0.00012224,0.00001662,-0.00001343,-0.00000279,0.00000017,-0.000129
 69,0.00015501,-0.00001308,0.00005789,-0.00003438,0.00001264,-0.0000145
 4,0.00001060,-0.00002908,-0.00001522,0.00001769,0.00001797,-0.00001182
 ,0.00000573,-0.00000248,0.00000244,-0.00000888,0.00001444,0.00000111,0
 .00000039,0.00000100,0.00000201,0.00000005,0.00000228,0.00000360,-0.00
 001112,-0.00000925,0.00000244,0.00000128,-0.00000089,0.00000170,-0.000
 00126,-0.00000174,0.00000071,0.00000384,-0.00000066,-0.00000775,0.0000
 0102,0.00000035,-0.00000131,0.00000240,-0.00000121,-0.00000698,0.00000
 039,-0.00000126,-0.00000155,0.00000249,0.00000049,-0.00000319,-0.00000
 084,0.00000005,0.00000055,-0.00000004,-0.00000001,-0.00011617,-0.00008
 044,-0.00000169,0.00002045,0.00001787,0.00002694,-0.00000634,0.0000025
 4,0.00000286,0.00001027,-0.00000205,-0.00001227,-0.00000247,0.00000096
 ,-0.00000274,-0.00000160,0.00000069,-0.00001919,0.00000562,0.00000356,
 0.00000652,-0.00000611,0.00000210,-0.00000316,-0.00000116,0.00000210,0
 .00000783,0.00002385,-0.00000516,0.00000239,-0.00000038,0.00000242,-0.
 00000241,-0.00000177,-0.00000104,0.00000411,0.00000639,0.00000712,-0.0
 0000037,0.00082872,-0.00025009,0.00142011,0.00001095,0.00008308,-0.000
 10765,-0.00026960,0.00047619,-0.00040652,-0.00019922,0.00008525,0.0004
 2769,0.00082561,0.00053289,0.00091530,-0.00012852,0.00003589,-0.000008
 71,0.00020112,0.00035283,-0.00000327,-0.00049081,-0.00004803,0.0000793
 5,-0.00419273,0.00621003,-0.04602990,0.00523484,-0.00203429,0.05032464
 ,0.00010248,-0.00014494,0.00001122,-0.00010570,-0.00015666,0.00000837,
 -0.00001576,0.00011039,-0.00000368,-0.00014095,-0.00005869,-0.00000299
 ,0.00012421,-0.00008443,0.00000789,-0.00000079,0.00007744,-0.00000271,
 -0.00005548,-0.00030987,-0.00000414,0.00000609,-0.00000183,0.00000039,
 0.00000011,-0.00000448,-0.00000054,-0.00000202,-0.00000262,0.00000019,
 -0.00001081,0.00018706,-0.00002376,-0.00013932,-0.00016131,-0.00015621
 ,-0.00020897,0.00040873,0.00004538,0.00027652,-0.00073796,0.00013607,-
 0.00011554,0.00115853,-0.00033933,-0.00102464,0.00126383,0.00112969,0.
 00018877,0.00016313,0.00000117,-0.00000861,0.00003055,-0.00000766,-0.0
 0155992,0.00159275,0.00145195,-0.00235210,-0.00051373,0.00005799,-0.00
 002043,0.00002559,0.00009596,0.00005487,0.00007303,0.00000748,0.000098
 12,0.00016449,-0.00000995,0.00000962,0.00000273,-0.00000006,0.00004524
 ,-0.00001759,0.00000291,-0.00000315,-0.00000056,0.,-0.00002512,0.00002
 313,-0.00000235,0.00001078,-0.00000136,0.00000188,-0.00000206,0.000002
 37,-0.00000510,-0.00000227,0.00000318,0.00000389,-0.00000160,-0.000000
 11,0.00000024,0.00000080,0.00000014,0.00000224,0.00000019,-0.00000123,
 0.00000032,-0.00000012,0.00000038,-0.00000071,0.00000091,-0.00000065,-
 0.00000197,0.00000044,-0.00000092,-0.00000022,0.00000008,0.00000028,-0
 .00000008,0.00000054,0.00000114,0.00000004,-0.00000181,-0.00000010,0.0
 0000051,0.00000049,-0.00000076,-0.00000018,-0.00000174,-0.00000047,-0.
 00000077,0.00000025,-0.00000035,0.00000065,-0.00000114,0.00000006,-0.0
 0000011,0.00000016,-0.00000105,0.00000003,-0.00006445,-0.00007508,0.00
 001928,-0.00001815,-0.00001882,-0.00002037,-0.00000320,0.00000387,0.00
 000209,-0.00000766,0.00000669,0.00000762,0.00000171,-0.00000261,-0.000
 00242,0.00001656,-0.00000922,0.00000839,-0.00000150,0.00000103,-0.0000
 0057,-0.00000076,0.00000181,-0.00000051,-0.00026624,0.00013286,0.00012
 174,0.00004371,0.00002103,0.00000352,-0.00035324,-0.00001048,-0.000067
 87,0.00000094,-0.00000219,-0.00000036,0.00000316,-0.00000631,-0.000006
 10,0.00024541,0.00006350,0.00033390,0.00028292,0.00007205,-0.00029870,
 -0.00002032,-0.00004081,-0.00000892,0.00012841,0.00009102,-0.00011647,
 0.00112560,-0.00050912,-0.00138633,0.00000292,0.00005092,0.00015283,-0
 .00021205,-0.00033066,0.00006172,0.00033193,0.00005339,0.00011342,-0.2
 6577939,-0.10688983,-0.00388481,-0.01852325,-0.01039304,0.00001337,0.2
 8997875,-0.00002275,0.00005933,-0.00000100,0.00004086,0.00001775,0.000
 00384,0.00000622,-0.00004437,0.00000059,0.00008186,0.00003251,0.000001
 52,-0.00008451,0.00006229,-0.00000565,0.00002905,-0.00005528,0.0000031
 8,0.00001028,-0.00007671,-0.00000784,-0.00000318,-0.00000008,-0.000000
 04,0.00000012,0.00000255,0.00000021,0.00000117,0.00000227,-0.00000039,
 0.00002438,0.00004942,-0.00000343,-0.00015263,-0.00029227,-0.00005581,
 -0.00012833,0.00020388,-0.00004901,0.00020864,-0.00034747,0.00008376,-
 0.00111116,0.00070048,0.00027578,-0.00006587,-0.00128696,-0.00021162,0
 .00050890,0.00028300,0.00006006,-0.00001947,0.00010088,0.00000161,0.00
 192310,-0.00043994,-0.00144557,-0.01602658,-0.00953335,0.00058620,-0.0
 0001609,0.00006544,0.00003530,0.00002440,0.00022798,-0.00001887,0.0000
 1311,-0.00003625,0.00000026,-0.00001114,0.00000651,-0.00000040,-0.0000
 5911,0.00003135,-0.00000358,0.00000218,0.00000063,-0.00000021,0.000026
 98,-0.00003851,0.00000326,-0.00001299,0.00001180,-0.00000349,0.0000036
 8,-0.00000214,0.00000632,0.00000382,-0.00000401,-0.00000350,0.00000324
 ,-0.00000205,0.00000099,-0.00000035,0.00000312,-0.00000336,-0.00000032
 ,-0.00000105,-0.00000008,-0.00000079,0.00000034,-0.00000118,-0.0000006
 4,0.00000352,0.00000185,-0.00000058,-0.00000120,0.00000014,-0.00000060
 ,0.00000071,0.00000067,0.00000012,-0.00000057,0.00000017,0.00000140,-0
 .00000044,0.00000023,0.00000085,-0.00000133,0.00000024,0.00000122,-0.0
 0000045,-0.00000005,0.00000080,-0.00000120,0.00000028,0.00000042,0.000
 00031,-0.00000005,-0.00000012,-0.00000068,0.00000006,-0.00007527,-0.00
 012506,0.00001928,-0.00002316,-0.00004642,-0.00005962,-0.00000063,0.00
 000657,0.00000373,-0.00002276,0.00001077,0.00002258,0.00000584,-0.0000
 0172,0.00000493,-0.00001142,-0.00004051,0.00005258,-0.00002276,0.00000
 417,-0.00002024,0.00000089,0.00000528,-0.00000192,0.00012353,-0.000077
 11,-0.00008563,-0.00000959,-0.00000966,-0.00000999,0.00009541,-0.00045
 941,-0.00000825,0.00000538,0.00000596,-0.00001190,-0.00002685,-0.00000
 183,0.00000712,0.00031982,0.00040139,0.00117554,0.00008329,0.00020836,
 -0.00026740,0.00005949,0.00005408,-0.00008811,0.00022599,-0.00010094,0
 .00003806,0.00073076,-0.00193839,-0.00370287,0.00035382,0.00016180,-0.
 00000998,-0.00136862,-0.00023633,-0.00028553,-0.00018985,0.00024906,0.
 00004841,-0.10578148,-0.09791201,-0.00191045,0.02081283,0.01145233,0.0
 0037235,0.11481992,0.10617756,-0.00002376,0.00004615,-0.00000045,0.000
 03571,0.00001643,0.00000397,0.00000503,-0.00002951,-0.00000067,0.00005
 545,0.00002148,0.00000103,-0.00005728,0.00003977,-0.00000376,0.0000143
 4,-0.00003667,0.00000156,0.00001953,-0.00002700,-0.00002030,-0.0000024
 5,0.00000035,0.00000013,0.,0.00000178,0.00000032,0.00000086,0.00000142
 ,-0.00000028,0.00001087,0.00001924,0.00000298,-0.00006881,-0.00013872,
 0.00000746,-0.00012086,0.00010463,-0.00004892,0.00010764,-0.00025309,0
 .00014524,-0.00025759,0.00088230,0.00042402,-0.00028878,-0.00114580,-0
 .00042050,0.00034733,0.00025667,-0.00001306,-0.00001937,0.00008274,-0.
 00001686,0.00180751,-0.00095403,-0.00118843,-0.02396934,-0.01017591,-0
 .00083270,0.00000668,0.00001362,-0.00000157,0.00000106,0.00015345,-0.0
 0001764,-0.00000316,-0.00003895,0.00000326,-0.00000622,0.00000352,-0.0
 0000161,-0.00003346,0.00001718,-0.00000212,0.00000146,0.00000026,-0.00
 000021,0.00001540,-0.00002151,0.00000264,-0.00000724,0.00000679,-0.000
 00248,0.00000191,-0.00000196,0.00000275,0.00000210,-0.00000238,-0.0000
 0226,0.00000208,-0.00000105,-0.00000001,-0.00000027,0.00000146,-0.0000
 0161,-0.00000023,-0.00000028,0.00000022,-0.00000013,0.00000019,0.00000
 002,-0.00000031,0.00000213,0.00000108,-0.00000035,-0.00000060,0.000000
 15,-0.00000041,0.00000048,0.00000072,0.00000005,-0.00000050,-0.0000001
 7,0.00000070,-0.00000037,0.00000022,0.00000032,-0.00000042,-0.00000013
 ,0.00000076,-0.00000021,0.00000016,0.00000049,-0.00000069,0.00000006,0
 .00000027,0.00000016,0.00000008,-0.00000007,-0.00000019,0.00000016,-0.
 00004483,-0.00007612,0.00001040,-0.00000895,-0.00002628,-0.00002899,0.
 00000106,0.00000281,0.00000071,-0.00001112,0.00000536,0.00001157,0.000
 00284,-0.00000100,0.00000076,-0.00001048,-0.00001708,0.00004038,-0.000
 01151,0.00000270,-0.00001325,0.00000154,0.00000237,-0.00000318,0.00000
 375,-0.00004021,-0.00002868,-0.00002737,0.00000728,0.00001682,0.000027
 33,-0.00003229,-0.00040319,0.00000182,0.00000233,-0.00001727,-0.000018
 28,-0.00000112,-0.00000102,-0.00085195,-0.00031984,0.00171576,0.000260
 30,0.00039229,-0.00047447,-0.00000174,0.00006907,-0.00010448,0.0002334
 2,-0.00000484,0.00023847,0.00034247,-0.00311088,-0.00444157,0.00000601
 ,-0.00017108,0.00021305,-0.00157893,-0.00101889,0.00009461,0.00025750,
 0.00016683,-0.00006787,-0.00272391,-0.00150237,-0.04863474,-0.00075378
 ,-0.00035481,-0.00084963,0.00255778,0.00655356,0.05303667,0.00002460,-
 0.00003102,0.00000189,-0.00002359,-0.00002827,0.00000014,-0.00000309,0
 .00002345,-0.00000215,-0.00003432,-0.00001356,-0.00000077,0.00003226,-
 0.00002233,0.00000209,-0.00000677,0.00002053,-0.00000091,-0.00000764,-
 0.00005960,0.00000526,0.00000112,-0.00000003,0.00000018,-0.00000003,-0
 .00000076,0.00000029,-0.00000040,-0.00000074,0.00000009,-0.00000332,0.
 00004424,0.00000020,-0.00005428,-0.00009958,-0.00001769,-0.00002410,0.
 00005740,-0.00002664,0.00009045,-0.00007108,-0.00016392,0.00005951,-0.
 00025122,0.00038388,-0.00054332,-0.00006877,0.00004325,0.00002844,0.00
 021721,-0.00012799,0.00001279,-0.00000860,0.00000741,0.00025569,-0.000
 00387,-0.00003563,-0.00157691,0.00209281,-0.00216583,0.00001299,0.0000
 0376,0.00001275,-0.00001180,0.00007045,0.00000135,0.00001804,0.0000397
 6,-0.00000210,0.00000435,-0.00000227,-0.00000044,0.00002033,-0.0000109
 8,0.00000123,-0.00000065,-0.00000028,0.00000008,-0.00000974,0.00001344
 ,-0.00000083,0.00000549,-0.00000484,0.00000122,-0.00000143,0.00000046,
 -0.00000281,-0.00000147,0.00000151,0.00000101,-0.00000101,0.00000067,-
 0.00000069,0.00000029,-0.00000193,0.00000143,0.00000005,0.00000082,0.0
 0000020,0.00000044,-0.00000096,0.00000031,0.00000038,-0.00000140,-0.00
 000062,0.00000022,0.00000063,0.00000001,0.00000015,-0.00000024,0.00000
 004,-0.00000019,0.00000016,-0.00000034,-0.00000061,0.00000007,-0.00000
 005,-0.00000051,0.00000055,-0.00000053,-0.00000042,0.00000028,0.000000
 19,-0.00000032,0.00000044,-0.00000025,-0.00000018,-0.00000018,0.000000
 07,0.00000007,0.00000052,0.00000011,-0.00002200,-0.00002772,0.00000741
 ,-0.00000607,-0.00000308,-0.00000696,0.00000007,0.00000117,0.00000086,
 -0.00000321,0.00000109,0.00000331,0.00000034,-0.00000087,-0.00000167,-
 0.00000672,-0.00000070,0.00001477,-0.00000204,-0.00000002,-0.00000518,
 -0.00000011,0.00000155,-0.00000047,-0.00011788,0.00000009,0.00000965,0
 .00000098,-0.00000065,0.00000205,0.00000683,-0.00000145,0.00001115,0.0
 0000081,0.00000025,-0.00000916,-0.00000488,0.00000014,-0.00000045,0.00
 030496,-0.00034577,-0.00061234,0.00012334,0.00022317,-0.00021951,0.000
 09553,-0.00030252,0.00021075,0.00053000,-0.00000981,-0.00018790,0.0003
 1438,0.00048941,-0.00086152,-0.00003602,-0.00014441,0.00007013,-0.0000
 1325,0.00009490,0.00012251,-0.00000635,0.00003307,-0.00003938,-0.05052
 293,-0.01771210,0.02431647,0.00356065,0.01148183,-0.01972326,-0.002032
 41,-0.01530413,0.02476958,0.04957443,-0.00007209,0.00010599,-0.0000081
 4,0.00007714,0.00010501,-0.00000443,0.00001111,-0.00008193,0.00000234,
 0.00011045,0.00004556,0.00000232,-0.00010021,0.00006997,-0.00000671,0.
 00000952,-0.00006378,0.00000291,0.00004010,0.00018390,-0.00000478,-0.0
 0000441,0.00000101,-0.00000024,-0.00000003,0.00000330,0.00000048,0.000
 00144,0.00000219,-0.00000016,0.00001398,-0.00011807,0.00001320,-0.0000
 0016,0.00004208,0.00000324,0.00016224,-0.00021690,-0.00000429,-0.00041
 762,0.00035607,0.00035077,-0.00003791,0.00116343,-0.00074995,-0.000004
 64,-0.00027686,0.00009232,0.00005301,-0.00001457,0.00004996,-0.0000014
 1,-0.00000458,0.00000824,0.00004262,0.00004175,-0.00003717,0.00252671,
 0.00971352,-0.01630351,0.00001291,-0.00001133,0.00000555,-0.00001282,-
 0.00002374,-0.00000562,-0.00006040,-0.00011578,0.00000365,-0.00000912,
 -0.00000002,-0.00000026,-0.00004633,0.00002107,-0.00000282,0.00000243,
 0.00000070,0.00000007,0.00002371,-0.00002703,0.00000165,-0.00001150,0.
 00000537,-0.00000200,0.00000260,-0.00000181,0.00000577,0.00000280,-0.0
 0000315,-0.00000327,0.00000183,-0.00000091,0.00000067,-0.00000078,0.00
 000183,-0.00000270,-0.00000011,0.00000001,-0.00000039,-0.00000123,-0.0
 0000098,-0.00000116,-0.00000088,0.00000180,0.00000177,-0.00000045,-0.0
 0000007,0.00000019,-0.00000018,0.00000009,0.,-0.00000014,-0.00000077,0
 .00000037,0.00000175,0.00000004,-0.00000043,0.00000016,-0.00000083,0.0
 0000042,0.00000135,-0.00000010,0.00000011,0.00000019,-0.00000038,-0.00
 000005,0.00000081,0.00000014,-0.00000003,-0.00000012,0.00000006,-0.000
 00015,0.00003287,0.00003709,-0.00000228,-0.00000007,0.00000352,-0.0000
 0074,0.,0.00000021,0.00000033,-0.00000004,-0.00000098,0.00000006,0.000
 00003,-0.00000031,-0.00000087,0.00000185,0.00000467,0.00000083,0.00000
 081,-0.00000117,0.00000016,0.00000057,0.00000024,-0.00000083,-0.000002
 65,0.00000594,0.00000890,0.00000063,-0.00000223,-0.00000151,0.00000405
 ,0.00000009,0.00000524,-0.00000023,0.00000059,-0.00000465,-0.00000242,
 0.00000058,0.00000015,-0.00039234,-0.00191324,-0.00310547,0.00009331,-
 0.00010381,0.00000912,-0.00020190,0.00006776,-0.00008194,-0.00002537,0
 .00082289,-0.00103237,0.00058884,0.00095105,-0.00017099,0.00013956,0.0
 0002799,0.00006045,0.00025017,0.00011345,0.00007406,-0.00011151,-0.000
 03215,0.00002240,-0.01793333,-0.13006759,0.12426892,-0.00426194,-0.011
 44650,0.01807713,-0.00011716,-0.00748770,0.01062982,0.01961994,0.13811
 834,0.00005946,-0.00010826,0.00000376,-0.00007129,-0.00009985,-0.00000
 320,-0.00001103,0.00008080,-0.00000604,-0.00010977,-0.00004673,-0.0000
 0107,0.00010136,-0.00007321,0.00000679,-0.00001588,0.00006614,-0.00000
 231,-0.00001110,-0.00013568,0.00001814,0.00000434,-0.00000090,-0.00000
 057,-0.00000023,-0.00000310,0.00000032,-0.00000120,-0.00000222,-0.0000
 0013,-0.00002375,0.00008009,0.00001677,-0.00005865,0.00005786,-0.00000
 113,-0.00005691,0.00008050,-0.00007261,0.00023570,-0.00039518,0.000256
 36,-0.00131332,0.00190700,0.00008618,0.00015239,0.00003202,-0.00000615
 ,-0.00004767,0.00004069,-0.00007499,-0.00000777,-0.00000362,0.00002108
 ,-0.00015417,-0.00000530,0.00003027,0.00340185,0.01314854,-0.02064116,
 0.00000368,-0.00002569,0.00000100,0.00002694,-0.00007012,0.00001519,0.
 00004092,0.00010665,0.00000581,0.00000962,-0.00000593,-0.00000389,0.00
 005358,-0.00002672,0.00000228,-0.00000263,-0.00000054,-0.00000040,-0.0
 0002547,0.00003437,0.00000017,0.00001068,-0.00000764,0.00000162,-0.000
 00331,0.00000112,-0.00000747,-0.00000323,0.00000354,0.00000223,-0.0000
 0258,0.00000143,-0.00000161,0.00000011,-0.00000224,0.00000343,0.000000
 25,0.00000066,0.00000054,0.00000120,0.00000057,0.00000249,0.00000050,-
 0.00000161,-0.00000158,0.00000064,0.00000046,0.00000015,0.00000005,-0.
 00000010,0.00000047,0.00000026,0.00000038,-0.00000092,-0.00000156,0.00
 000014,0.00000029,-0.00000053,0.00000106,-0.00000065,-0.00000087,0.000
 00054,0.00000039,-0.00000029,0.00000016,-0.00000029,-0.00000017,-0.000
 00008,0.00000035,0.00000003,0.00000031,0.00000035,0.00000383,0.0000270
 6,-0.00000915,0.00000631,0.00001125,0.00001182,-0.00000139,-0.00000074
 ,0.00000055,0.00000565,-0.00000141,-0.00000568,-0.00000115,0.00000067,
 0.00000129,0.00000482,0.00000691,-0.00002012,0.00000456,-0.00000067,0.
 00000853,-0.00000133,-0.00000091,0.00000111,0.00008263,-0.00001841,-0.
 00006162,0.00000314,-0.00000484,-0.00000446,-0.00000576,0.00000087,-0.
 00000017,-0.00000310,-0.00000030,0.00000782,0.00000470,0.00000207,0.00
 000078,-0.00060672,-0.00470228,-0.00392754,0.00011228,-0.00003326,0.00
 024439,-0.00009156,-0.00009318,0.00041358,0.00016033,0.00100356,-0.001
 55023,0.00094490,0.00123918,0.00085212,-0.00059313,-0.00058899,0.00002
 591,0.00013299,-0.00020730,0.00028791,-0.00008160,-0.00005881,-0.00002
 726,0.02375706,0.12252199,-0.23066475,-0.00022621,-0.00048146,0.000445
 87,-0.00000613,-0.00108769,0.00166666,-0.02578532,-0.13216369,0.252652
 35\\-0.00000193,0.00000005,0.00000599,-0.00000210,-0.00000062,0.000009
 63,-0.00000291,-0.00000086,0.00001308,-0.00000350,-0.00000031,0.000012
 86,-0.00000325,0.00000028,0.00000933,-0.00000247,0.00000053,0.00000583
 ,-0.00000094,-0.00000055,0.00000496,-0.00000309,-0.00000125,0.00001582
 ,-0.00000417,-0.00000042,0.00001548,-0.00000377,0.00000063,0.00000929,
 -0.00000126,-0.00000103,0.00000887,0.00000043,-0.00000155,0.00000566,0
 .00000015,-0.00000074,0.00000318,0.00000069,-0.00000031,-0.00000080,0.
 00000143,-0.00000060,-0.00000243,0.00000188,-0.00000129,0.00000004,0.0
 0000139,-0.00000185,0.00000399,0.00000047,0.00000024,-0.00000255,0.000
 00255,-0.00000149,-0.00000130,0.00000211,-0.00000002,-0.00000677,0.000
 00176,-0.00000264,0.00000652,-0.00000025,-0.00000189,0.00000936,-0.000
 00097,0.00000006,0.00000310,-0.00000113,0.00000097,-0.00000097,-0.0000
 0227,0.00000114,0.00000228,-0.00000268,0.00000138,0.00000231,-0.000001
 48,0.00000128,-0.00000103,-0.00000117,0.00000187,-0.00000478,-0.000004
 52,0.00000442,-0.00000576,0.00000117,0.00000023,-0.00000491,-0.0000002
 6,0.00000167,-0.00000686,-0.00000413,0.00000503,-0.00000972,-0.0000055
 0,0.00000465,-0.00000357,-0.00000614,0.00000556,-0.00000567,0.00000154
 ,0.00000085,-0.00000888,0.00000030,0.00000039,-0.00000273,0.00000350,-
 0.00000155,-0.00000420,-0.00000172,0.00000339,-0.00000994,-0.00000648,
 0.00000682,-0.00001037,-0.00000331,0.00000491,-0.00001191,0.00000320,-
 0.00000032,-0.00000891,0.00000260,0.00000056,-0.00001103,-0.00000144,0
 .00000380,-0.00001283,-0.00000267,0.00000361,-0.00000796,-0.00000082,-
 0.00000150,0.00000998,0.00000431,-0.00000504,0.00000921,0.00000363,-0.
 00000497,0.00001112,0.00000462,-0.00000563,0.00001095,0.00000663,-0.00
 000630,0.00000754,-0.00000151,-0.00000088,0.00000891,-0.00000123,-0.00
 000144,0.00001061,-0.00000232,-0.00000073,0.00001086,-0.00000335,0.000
 00083,0.00000703,0.00000283,-0.00000288,0.00000408,0.00000107,-0.00000
 122,0.00000217,0.00000513,-0.00000412,0.00000233,0.00000312,-0.0000035
 0,0.00000598,0.00000553,-0.00000220,-0.00000784,0.00000588,-0.00000275
 ,-0.00000638,0.00000594,-0.00000181,-0.00001093,0.00000735,-0.00000363
 ,-0.00000710,0.00000178,0.00000071,-0.00000903,-0.00000063,0.00000228,
 -0.00000842,0.00000352,-0.00000066,-0.00000837,0.00000221,0.00000107,-
 0.00001210,-0.00000037,0.00000196,-0.00000785,0.00000006,0.00000234,-0
 .00001094,-0.00000019,0.00000152,-0.00000635,-0.00000282,0.00000354,-0
 .00000717\\\@


 The mind is not a vessel to be filled but a fire to be kindled.
                                  -- Plutarch
 Job cpu time:       0 days 14 hours 10 minutes 43.9 seconds.
 Elapsed time:       0 days  0 hours 53 minutes 24.2 seconds.
 File lengths (MBytes):  RWF=   5884 Int=      0 D2E=      0 Chk=     84 Scr=      8
 Normal termination of Gaussian 16 at Fri Dec 21 15:46:03 2018.
