 Entering Gaussian System, Link 0=g16
 Initial command:
 /gpfs/apps/hpc/Apps/Restricted/Gaussian/Rev_A.03/g16/l1.exe "/gpfs/scratch60/fas/hammes_schiffer/jg2487/c13n09/Gau-18577.inp" -scrdir="/gpfs/scratch60/fas/hammes_schiffer/jg2487/c13n09/"
 Entering Link 1 = /gpfs/apps/hpc/Apps/Restricted/Gaussian/Rev_A.03/g16/l1.exe PID=     18578.
  
 Copyright (c) 1988,1990,1992,1993,1995,1998,2003,2009,2016,
            Gaussian, Inc.  All Rights Reserved.
  
 This is part of the Gaussian(R) 16 program.  It is based on
 the Gaussian(R) 09 system (copyright 2009, Gaussian, Inc.),
 the Gaussian(R) 03 system (copyright 2003, Gaussian, Inc.),
 the Gaussian(R) 98 system (copyright 1998, Gaussian, Inc.),
 the Gaussian(R) 94 system (copyright 1995, Gaussian, Inc.),
 the Gaussian 92(TM) system (copyright 1992, Gaussian, Inc.),
 the Gaussian 90(TM) system (copyright 1990, Gaussian, Inc.),
 the Gaussian 88(TM) system (copyright 1988, Gaussian, Inc.),
 the Gaussian 86(TM) system (copyright 1986, Carnegie Mellon
 University), and the Gaussian 82(TM) system (copyright 1983,
 Carnegie Mellon University). Gaussian is a federally registered
 trademark of Gaussian, Inc.
  
 This software contains proprietary and confidential information,
 including trade secrets, belonging to Gaussian, Inc.
  
 This software is provided under written license and may be
 used, copied, transmitted, or stored only in accord with that
 written license.
  
 The following legend is applicable only to US Government
 contracts under FAR:
  
                    RESTRICTED RIGHTS LEGEND
  
 Use, reproduction and disclosure by the US Government is
 subject to restrictions as set forth in subparagraphs (a)
 and (c) of the Commercial Computer Software - Restricted
 Rights clause in FAR 52.227-19.
  
 Gaussian, Inc.
 340 Quinnipiac St., Bldg. 40, Wallingford CT 06492
  
  
 ---------------------------------------------------------------
 Warning -- This program may not be used in any manner that
 competes with the business of Gaussian, Inc. or will provide
 assistance to any competitor of Gaussian, Inc.  The licensee
 of this program is prohibited from giving any competitor of
 Gaussian, Inc. access to this program.  By using this program,
 the user acknowledges that Gaussian, Inc. is engaged in the
 business of creating and licensing software in the field of
 computational chemistry and represents and warrants to the
 licensee that it is not a competitor of Gaussian, Inc. and that
 it will not use this program in any manner prohibited above.
 ---------------------------------------------------------------
  

 Cite this work as:
 Gaussian 16, Revision A.03,
 M. J. Frisch, G. W. Trucks, H. B. Schlegel, G. E. Scuseria, 
 M. A. Robb, J. R. Cheeseman, G. Scalmani, V. Barone, 
 G. A. Petersson, H. Nakatsuji, X. Li, M. Caricato, A. V. Marenich, 
 J. Bloino, B. G. Janesko, R. Gomperts, B. Mennucci, H. P. Hratchian, 
 J. V. Ortiz, A. F. Izmaylov, J. L. Sonnenberg, D. Williams-Young, 
 F. Ding, F. Lipparini, F. Egidi, J. Goings, B. Peng, A. Petrone, 
 T. Henderson, D. Ranasinghe, V. G. Zakrzewski, J. Gao, N. Rega, 
 G. Zheng, W. Liang, M. Hada, M. Ehara, K. Toyota, R. Fukuda, 
 J. Hasegawa, M. Ishida, T. Nakajima, Y. Honda, O. Kitao, H. Nakai, 
 T. Vreven, K. Throssell, J. A. Montgomery, Jr., J. E. Peralta, 
 F. Ogliaro, M. J. Bearpark, J. J. Heyd, E. N. Brothers, K. N. Kudin, 
 V. N. Staroverov, T. A. Keith, R. Kobayashi, J. Normand, 
 K. Raghavachari, A. P. Rendell, J. C. Burant, S. S. Iyengar, 
 J. Tomasi, M. Cossi, J. M. Millam, M. Klene, C. Adamo, R. Cammi, 
 J. W. Ochterski, R. L. Martin, K. Morokuma, O. Farkas, 
 J. B. Foresman, and D. J. Fox, Gaussian, Inc., Wallingford CT, 2016.
 
 ******************************************
 Gaussian 16:  ES64L-G16RevA.03 25-Dec-2016
                20-Dec-2018 
 ******************************************
 %chk=cyclohexyl-monoBIP-TS2_rev.chk
 %mem=10GB
 %nprocshared=16
 Will use up to   16 processors via shared memory.
 ----------------------------------------------------------------------
 #p opt=(calcfc,tight,ts,noeigentest) freq=internalmodes b3lyp/6-31g(d,
 p) scrf=(cpcm,solvent=dichloromethane,read) nosymm empiricaldispersion
 =gd3bj int=grid=ultrafine
 ----------------------------------------------------------------------
 1/5=1,7=10,10=4,11=1,18=20,26=6,38=1,40=2/1,3;
 2/9=110,12=2,15=1,17=6,18=5,40=1/2;
 3/5=1,6=6,7=101,11=2,25=1,30=1,70=2103,71=2,72=9,74=-5,75=-5,124=41,140=1/1,2,3;
 4//1;
 5/5=2,38=5,53=9/2;
 8/6=4,10=90,11=11/1;
 11/6=1,8=1,9=11,15=111,16=1,31=1/1,2,10;
 10/6=1,13=1,31=1/2;
 6/7=2,8=2,9=2,10=2,28=1/1;
 7/10=1,18=20,25=1,30=1/1,2,3,16;
 1/5=1,7=10,10=4,11=1,18=20,26=6/3(2);
 2/9=110,15=1/2;
 99//99;
 2/9=110,15=1/2;
 3/5=1,6=6,7=101,11=2,25=1,30=1,70=2105,71=1,72=9,74=-5,75=-5,124=41/1,2,3;
 4/5=5,16=3,69=1/1;
 5/5=2,38=5,53=9/2;
 7/30=1/1,2,3,16;
 1/5=1,7=10,11=1,18=20,26=6/3(-5);
 2/9=110,15=1/2;
 6/7=2,8=2,9=2,10=2,19=2,28=1/1;
 99/9=1/99;
 Leave Link    1 at Thu Dec 20 18:56:29 2018, MaxMem=  1342177280 cpu:               9.5 elap:               0.6
 (Enter /gpfs/apps/hpc/Apps/Restricted/Gaussian/Rev_A.03/g16/l101.exe)
 ----------------------------------------------------------------------
 cyclohexylimine monoBIP oxidized, optimize to transition state of firs
 t proton transferred
 ----------------------------------------------------------------------
 Symbolic Z-matrix:
 Charge =  1 Multiplicity = 2
 C                    -0.42419   2.67174   0.27773 
 C                    -1.83568   2.79279   0.23762 
 C                    -2.43393   4.05878   0.14155 
 C                    -1.58508   5.1559    0.09357 
 C                    -0.17868   5.02067   0.13608 
 C                     0.44283   3.77617   0.22939 
 C                    -1.33669   0.66604   0.36926 
 H                    -3.51007   4.16887   0.10552 
 H                    -2.00793   6.15044   0.02131 
 H                     0.4382    5.91089   0.09589 
 N                    -2.36559   1.52551   0.29775 
 C                    -2.95818  -1.18915   0.41953 
 C                    -1.56604  -0.75275   0.42968 
 C                    -0.55906  -1.70281   0.4788 
 C                    -0.86681  -3.07205   0.52101 
 C                    -2.23064  -3.48478   0.52577 
 C                    -3.27348  -2.59449   0.48095 
 H                     0.47865  -1.39239   0.47917 
 H                    -2.44452  -4.54684   0.56929 
 C                     0.21415  -4.10109   0.53956 
 C                    -4.70983  -3.00981   0.48526 
 O                    -3.92255  -0.33374   0.35053 
 N                    -0.04177   1.37849   0.36167 
 H                     1.31235   1.59085   0.38056 
 C                     1.89445   3.60335   0.27084 
 H                     2.49114   4.51934   0.21674 
 N                     2.30151   2.38779   0.36582 
 C                     3.76569   2.26831   0.40534 
 C                     4.41443   2.69492  -0.92193 
 C                     4.39559   3.03243   1.58145 
 H                     3.97549   1.20273   0.55061 
 C                     5.93004   2.47004  -0.87863 
 H                     4.20121   3.75746  -1.08922 
 H                     3.96129   2.13862  -1.74792 
 C                     5.91      2.8011    1.62866 
 H                     4.19808   4.1039    1.45799 
 H                     3.91964   2.72242   2.51632 
 C                     6.57071   3.20383   0.30489 
 H                     6.38472   2.79096  -1.82062 
 H                     6.12659   1.39454  -0.78435 
 H                     6.3452    3.36199   2.46137 
 H                     6.10676   1.73945   1.82366 
 H                     7.64584   3.00346   0.33957 
 H                     6.45294   4.28535   0.16181 
 H                    -3.45551   0.69607   0.30998 
 C                    -5.46557  -2.3515    1.65449 
 H                    -5.95483  -1.46491   1.30884 
 H                    -6.19439  -3.0347    2.03784 
 H                    -4.77257  -2.0975    2.42917 
 C                    -5.41214  -2.56041  -0.8095 
 H                    -6.15847  -3.27854  -1.07816 
 H                    -5.87373  -1.60791  -0.65274 
 H                    -4.69218  -2.48253  -1.59721 
 C                    -4.82842  -4.54011   0.6106 
 H                    -4.34783  -5.00472  -0.2249 
 H                    -4.35816  -4.86128   1.51647 
 H                    -5.86168  -4.8176    0.62733 
 C                    -0.03803  -5.13861   1.64932 
 H                    -0.75475  -5.85692   1.30984 
 H                     0.87907  -5.63532   1.88829 
 H                    -0.41363  -4.64446   2.52089 
 C                     1.60279  -3.46602   0.73948 
 H                     1.83368  -2.84216  -0.0986 
 H                     1.60032  -2.8769    1.6327 
 H                     2.33921  -4.23775   0.82326 
 C                     0.21767  -4.87722  -0.79055 
 H                     1.11285  -5.45902  -0.86165 
 H                    -0.63286  -5.52541  -0.82753 
 H                     0.17545  -4.1865   -1.60665 
 
 Add virtual bond connecting atoms N23        and H24        Dist= 2.59D+00.
 Add virtual bond connecting atoms N27        and H24        Dist= 2.40D+00.
 ITRead=  0  0  0  0  0  0  0  0  0  0  0  0  0  0  0  0  0  0  0  0
 ITRead=  0  0  0  0  0  0  0  0  0  0  0  0  0  0  0  0  0  0  0  0
 ITRead=  0  0  0  0  0  0  0  0  0  0  0  0  0  0  0  0  0  0  0  0
 ITRead=  0  0  0  0  0  0  0  0  0
 MicOpt= -1 -1 -1 -1 -1 -1 -1 -1 -1 -1 -1 -1 -1 -1 -1 -1 -1 -1 -1 -1
 MicOpt= -1 -1 -1 -1 -1 -1 -1 -1 -1 -1 -1 -1 -1 -1 -1 -1 -1 -1 -1 -1
 MicOpt= -1 -1 -1 -1 -1 -1 -1 -1 -1 -1 -1 -1 -1 -1 -1 -1 -1 -1 -1 -1
 MicOpt= -1 -1 -1 -1 -1 -1 -1 -1 -1
 NAtoms=     69 NQM=       69 NQMF=       0 NMMI=      0 NMMIF=      0
                NMic=       0 NMicF=      0.
                    Isotopes and Nuclear Properties:
 (Nuclear quadrupole moments (NQMom) in fm**2, nuclear magnetic moments (NMagM)
  in nuclear magnetons)

  Atom         1           2           3           4           5           6           7           8           9          10
 IAtWgt=          12          12          12          12          12          12          12           1           1           1
 AtmWgt=  12.0000000  12.0000000  12.0000000  12.0000000  12.0000000  12.0000000  12.0000000   1.0078250   1.0078250   1.0078250
 NucSpn=           0           0           0           0           0           0           0           1           1           1
 AtZEff=  -0.0000000  -0.0000000  -0.0000000  -0.0000000  -0.0000000  -0.0000000  -0.0000000  -0.0000000  -0.0000000  -0.0000000
 NQMom=    0.0000000   0.0000000   0.0000000   0.0000000   0.0000000   0.0000000   0.0000000   0.0000000   0.0000000   0.0000000
 NMagM=    0.0000000   0.0000000   0.0000000   0.0000000   0.0000000   0.0000000   0.0000000   2.7928460   2.7928460   2.7928460
 AtZNuc=   6.0000000   6.0000000   6.0000000   6.0000000   6.0000000   6.0000000   6.0000000   1.0000000   1.0000000   1.0000000

  Atom        11          12          13          14          15          16          17          18          19          20
 IAtWgt=          14          12          12          12          12          12          12           1           1          12
 AtmWgt=  14.0030740  12.0000000  12.0000000  12.0000000  12.0000000  12.0000000  12.0000000   1.0078250   1.0078250  12.0000000
 NucSpn=           2           0           0           0           0           0           0           1           1           0
 AtZEff=  -0.0000000  -0.0000000  -0.0000000  -0.0000000  -0.0000000  -0.0000000  -0.0000000  -0.0000000  -0.0000000  -0.0000000
 NQMom=    2.0440000   0.0000000   0.0000000   0.0000000   0.0000000   0.0000000   0.0000000   0.0000000   0.0000000   0.0000000
 NMagM=    0.4037610   0.0000000   0.0000000   0.0000000   0.0000000   0.0000000   0.0000000   2.7928460   2.7928460   0.0000000
 AtZNuc=   7.0000000   6.0000000   6.0000000   6.0000000   6.0000000   6.0000000   6.0000000   1.0000000   1.0000000   6.0000000

  Atom        21          22          23          24          25          26          27          28          29          30
 IAtWgt=          12          16          14           1          12           1          14          12          12          12
 AtmWgt=  12.0000000  15.9949146  14.0030740   1.0078250  12.0000000   1.0078250  14.0030740  12.0000000  12.0000000  12.0000000
 NucSpn=           0           0           2           1           0           1           2           0           0           0
 AtZEff=  -0.0000000  -0.0000000  -0.0000000  -0.0000000  -0.0000000  -0.0000000  -0.0000000  -0.0000000  -0.0000000  -0.0000000
 NQMom=    0.0000000   0.0000000   2.0440000   0.0000000   0.0000000   0.0000000   2.0440000   0.0000000   0.0000000   0.0000000
 NMagM=    0.0000000   0.0000000   0.4037610   2.7928460   0.0000000   2.7928460   0.4037610   0.0000000   0.0000000   0.0000000
 AtZNuc=   6.0000000   8.0000000   7.0000000   1.0000000   6.0000000   1.0000000   7.0000000   6.0000000   6.0000000   6.0000000

  Atom        31          32          33          34          35          36          37          38          39          40
 IAtWgt=           1          12           1           1          12           1           1          12           1           1
 AtmWgt=   1.0078250  12.0000000   1.0078250   1.0078250  12.0000000   1.0078250   1.0078250  12.0000000   1.0078250   1.0078250
 NucSpn=           1           0           1           1           0           1           1           0           1           1
 AtZEff=  -0.0000000  -0.0000000  -0.0000000  -0.0000000  -0.0000000  -0.0000000  -0.0000000  -0.0000000  -0.0000000  -0.0000000
 NQMom=    0.0000000   0.0000000   0.0000000   0.0000000   0.0000000   0.0000000   0.0000000   0.0000000   0.0000000   0.0000000
 NMagM=    2.7928460   0.0000000   2.7928460   2.7928460   0.0000000   2.7928460   2.7928460   0.0000000   2.7928460   2.7928460
 AtZNuc=   1.0000000   6.0000000   1.0000000   1.0000000   6.0000000   1.0000000   1.0000000   6.0000000   1.0000000   1.0000000

  Atom        41          42          43          44          45          46          47          48          49          50
 IAtWgt=           1           1           1           1           1          12           1           1           1          12
 AtmWgt=   1.0078250   1.0078250   1.0078250   1.0078250   1.0078250  12.0000000   1.0078250   1.0078250   1.0078250  12.0000000
 NucSpn=           1           1           1           1           1           0           1           1           1           0
 AtZEff=  -0.0000000  -0.0000000  -0.0000000  -0.0000000  -0.0000000  -0.0000000  -0.0000000  -0.0000000  -0.0000000  -0.0000000
 NQMom=    0.0000000   0.0000000   0.0000000   0.0000000   0.0000000   0.0000000   0.0000000   0.0000000   0.0000000   0.0000000
 NMagM=    2.7928460   2.7928460   2.7928460   2.7928460   2.7928460   0.0000000   2.7928460   2.7928460   2.7928460   0.0000000
 AtZNuc=   1.0000000   1.0000000   1.0000000   1.0000000   1.0000000   6.0000000   1.0000000   1.0000000   1.0000000   6.0000000

  Atom        51          52          53          54          55          56          57          58          59          60
 IAtWgt=           1           1           1          12           1           1           1          12           1           1
 AtmWgt=   1.0078250   1.0078250   1.0078250  12.0000000   1.0078250   1.0078250   1.0078250  12.0000000   1.0078250   1.0078250
 NucSpn=           1           1           1           0           1           1           1           0           1           1
 AtZEff=  -0.0000000  -0.0000000  -0.0000000  -0.0000000  -0.0000000  -0.0000000  -0.0000000  -0.0000000  -0.0000000  -0.0000000
 NQMom=    0.0000000   0.0000000   0.0000000   0.0000000   0.0000000   0.0000000   0.0000000   0.0000000   0.0000000   0.0000000
 NMagM=    2.7928460   2.7928460   2.7928460   0.0000000   2.7928460   2.7928460   2.7928460   0.0000000   2.7928460   2.7928460
 AtZNuc=   1.0000000   1.0000000   1.0000000   6.0000000   1.0000000   1.0000000   1.0000000   6.0000000   1.0000000   1.0000000

  Atom        61          62          63          64          65          66          67          68          69
 IAtWgt=           1          12           1           1           1          12           1           1           1
 AtmWgt=   1.0078250  12.0000000   1.0078250   1.0078250   1.0078250  12.0000000   1.0078250   1.0078250   1.0078250
 NucSpn=           1           0           1           1           1           0           1           1           1
 AtZEff=  -0.0000000  -0.0000000  -0.0000000  -0.0000000  -0.0000000  -0.0000000  -0.0000000  -0.0000000  -0.0000000
 NQMom=    0.0000000   0.0000000   0.0000000   0.0000000   0.0000000   0.0000000   0.0000000   0.0000000   0.0000000
 NMagM=    2.7928460   0.0000000   2.7928460   2.7928460   2.7928460   0.0000000   2.7928460   2.7928460   2.7928460
 AtZNuc=   1.0000000   6.0000000   1.0000000   1.0000000   1.0000000   6.0000000   1.0000000   1.0000000   1.0000000
 Leave Link  101 at Thu Dec 20 18:56:30 2018, MaxMem=  1342177280 cpu:               3.6 elap:               0.3
 (Enter /gpfs/apps/hpc/Apps/Restricted/Gaussian/Rev_A.03/g16/l103.exe)

 GradGradGradGradGradGradGradGradGradGradGradGradGradGradGradGradGradGrad
 Berny optimization.
 Initialization pass.
                           ----------------------------
                           !    Initial Parameters    !
                           ! (Angstroms and Degrees)  !
 --------------------------                            --------------------------
 ! Name  Definition              Value          Derivative Info.                !
 --------------------------------------------------------------------------------
 ! R1    R(1,2)                  1.4172         calculate D2E/DX2 analytically  !
 ! R2    R(1,6)                  1.4049         calculate D2E/DX2 analytically  !
 ! R3    R(1,23)                 1.3512         calculate D2E/DX2 analytically  !
 ! R4    R(2,3)                  1.4035         calculate D2E/DX2 analytically  !
 ! R5    R(2,11)                 1.3749         calculate D2E/DX2 analytically  !
 ! R6    R(3,4)                  1.388          calculate D2E/DX2 analytically  !
 ! R7    R(3,8)                  1.0823         calculate D2E/DX2 analytically  !
 ! R8    R(4,5)                  1.4135         calculate D2E/DX2 analytically  !
 ! R9    R(4,9)                  1.0831         calculate D2E/DX2 analytically  !
 ! R10   R(5,6)                  1.3942         calculate D2E/DX2 analytically  !
 ! R11   R(5,10)                 1.0838         calculate D2E/DX2 analytically  !
 ! R12   R(6,25)                 1.4625         calculate D2E/DX2 analytically  !
 ! R13   R(7,11)                 1.3426         calculate D2E/DX2 analytically  !
 ! R14   R(7,13)                 1.4385         calculate D2E/DX2 analytically  !
 ! R15   R(7,23)                 1.478          calculate D2E/DX2 analytically  !
 ! R16   R(12,13)                1.459          calculate D2E/DX2 analytically  !
 ! R17   R(12,17)                1.4416         calculate D2E/DX2 analytically  !
 ! R18   R(12,22)                1.2909         calculate D2E/DX2 analytically  !
 ! R19   R(13,14)                1.3853         calculate D2E/DX2 analytically  !
 ! R20   R(14,15)                1.404          calculate D2E/DX2 analytically  !
 ! R21   R(14,18)                1.0831         calculate D2E/DX2 analytically  !
 ! R22   R(15,16)                1.4249         calculate D2E/DX2 analytically  !
 ! R23   R(15,20)                1.4926         calculate D2E/DX2 analytically  !
 ! R24   R(16,17)                1.3719         calculate D2E/DX2 analytically  !
 ! R25   R(16,19)                1.0842         calculate D2E/DX2 analytically  !
 ! R26   R(17,21)                1.4952         calculate D2E/DX2 analytically  !
 ! R27   R(20,58)                1.54           calculate D2E/DX2 analytically  !
 ! R28   R(20,62)                1.54           calculate D2E/DX2 analytically  !
 ! R29   R(20,66)                1.54           calculate D2E/DX2 analytically  !
 ! R30   R(21,46)                1.54           calculate D2E/DX2 analytically  !
 ! R31   R(21,50)                1.54           calculate D2E/DX2 analytically  !
 ! R32   R(21,54)                1.54           calculate D2E/DX2 analytically  !
 ! R33   R(22,45)                1.1315         calculate D2E/DX2 analytically  !
 ! R34   R(23,24)                1.3708         calculate D2E/DX2 analytically  !
 ! R35   R(24,27)                1.2703         calculate D2E/DX2 analytically  !
 ! R36   R(25,26)                1.0945         calculate D2E/DX2 analytically  !
 ! R37   R(25,27)                1.2854         calculate D2E/DX2 analytically  !
 ! R38   R(27,28)                1.4696         calculate D2E/DX2 analytically  !
 ! R39   R(28,29)                1.5377         calculate D2E/DX2 analytically  !
 ! R40   R(28,30)                1.5375         calculate D2E/DX2 analytically  !
 ! R41   R(28,31)                1.0957         calculate D2E/DX2 analytically  !
 ! R42   R(29,32)                1.5328         calculate D2E/DX2 analytically  !
 ! R43   R(29,33)                1.0966         calculate D2E/DX2 analytically  !
 ! R44   R(29,34)                1.0941         calculate D2E/DX2 analytically  !
 ! R45   R(30,35)                1.5327         calculate D2E/DX2 analytically  !
 ! R46   R(30,36)                1.0965         calculate D2E/DX2 analytically  !
 ! R47   R(30,37)                1.0939         calculate D2E/DX2 analytically  !
 ! R48   R(32,38)                1.5328         calculate D2E/DX2 analytically  !
 ! R49   R(32,39)                1.0941         calculate D2E/DX2 analytically  !
 ! R50   R(32,40)                1.0974         calculate D2E/DX2 analytically  !
 ! R51   R(35,38)                1.5333         calculate D2E/DX2 analytically  !
 ! R52   R(35,41)                1.0943         calculate D2E/DX2 analytically  !
 ! R53   R(35,42)                1.0972         calculate D2E/DX2 analytically  !
 ! R54   R(38,43)                1.0942         calculate D2E/DX2 analytically  !
 ! R55   R(38,44)                1.0973         calculate D2E/DX2 analytically  !
 ! R56   R(46,47)                1.07           calculate D2E/DX2 analytically  !
 ! R57   R(46,48)                1.07           calculate D2E/DX2 analytically  !
 ! R58   R(46,49)                1.07           calculate D2E/DX2 analytically  !
 ! R59   R(50,51)                1.07           calculate D2E/DX2 analytically  !
 ! R60   R(50,52)                1.07           calculate D2E/DX2 analytically  !
 ! R61   R(50,53)                1.07           calculate D2E/DX2 analytically  !
 ! R62   R(54,55)                1.07           calculate D2E/DX2 analytically  !
 ! R63   R(54,56)                1.07           calculate D2E/DX2 analytically  !
 ! R64   R(54,57)                1.07           calculate D2E/DX2 analytically  !
 ! R65   R(58,59)                1.07           calculate D2E/DX2 analytically  !
 ! R66   R(58,60)                1.07           calculate D2E/DX2 analytically  !
 ! R67   R(58,61)                1.07           calculate D2E/DX2 analytically  !
 ! R68   R(62,63)                1.07           calculate D2E/DX2 analytically  !
 ! R69   R(62,64)                1.07           calculate D2E/DX2 analytically  !
 ! R70   R(62,65)                1.07           calculate D2E/DX2 analytically  !
 ! R71   R(66,67)                1.07           calculate D2E/DX2 analytically  !
 ! R72   R(66,68)                1.07           calculate D2E/DX2 analytically  !
 ! R73   R(66,69)                1.07           calculate D2E/DX2 analytically  !
 ! A1    A(2,1,6)              123.1279         calculate D2E/DX2 analytically  !
 ! A2    A(2,1,23)             111.4307         calculate D2E/DX2 analytically  !
 ! A3    A(6,1,23)             125.4409         calculate D2E/DX2 analytically  !
 ! A4    A(1,2,3)              120.2317         calculate D2E/DX2 analytically  !
 ! A5    A(1,2,11)             107.6912         calculate D2E/DX2 analytically  !
 ! A6    A(3,2,11)             132.0752         calculate D2E/DX2 analytically  !
 ! A7    A(2,3,4)              117.0436         calculate D2E/DX2 analytically  !
 ! A8    A(2,3,8)              121.1864         calculate D2E/DX2 analytically  !
 ! A9    A(4,3,8)              121.7699         calculate D2E/DX2 analytically  !
 ! A10   A(3,4,5)              122.1291         calculate D2E/DX2 analytically  !
 ! A11   A(3,4,9)              119.2977         calculate D2E/DX2 analytically  !
 ! A12   A(5,4,9)              118.5732         calculate D2E/DX2 analytically  !
 ! A13   A(4,5,6)              122.0694         calculate D2E/DX2 analytically  !
 ! A14   A(4,5,10)             119.1184         calculate D2E/DX2 analytically  !
 ! A15   A(6,5,10)             118.8122         calculate D2E/DX2 analytically  !
 ! A16   A(1,6,5)              115.398          calculate D2E/DX2 analytically  !
 ! A17   A(1,6,25)             121.2441         calculate D2E/DX2 analytically  !
 ! A18   A(5,6,25)             123.3574         calculate D2E/DX2 analytically  !
 ! A19   A(11,7,13)            120.7608         calculate D2E/DX2 analytically  !
 ! A20   A(11,7,23)            111.2591         calculate D2E/DX2 analytically  !
 ! A21   A(13,7,23)            127.9778         calculate D2E/DX2 analytically  !
 ! A22   A(2,11,7)             107.2784         calculate D2E/DX2 analytically  !
 ! A23   A(13,12,17)           119.9998         calculate D2E/DX2 analytically  !
 ! A24   A(13,12,22)           120.9963         calculate D2E/DX2 analytically  !
 ! A25   A(17,12,22)           119.0032         calculate D2E/DX2 analytically  !
 ! A26   A(7,13,12)            116.5432         calculate D2E/DX2 analytically  !
 ! A27   A(7,13,14)            124.1953         calculate D2E/DX2 analytically  !
 ! A28   A(12,13,14)           119.2564         calculate D2E/DX2 analytically  !
 ! A29   A(13,14,15)           120.7009         calculate D2E/DX2 analytically  !
 ! A30   A(13,14,18)           119.992          calculate D2E/DX2 analytically  !
 ! A31   A(15,14,18)           119.3062         calculate D2E/DX2 analytically  !
 ! A32   A(14,15,16)           119.4964         calculate D2E/DX2 analytically  !
 ! A33   A(14,15,20)           120.93           calculate D2E/DX2 analytically  !
 ! A34   A(16,15,20)           119.5667         calculate D2E/DX2 analytically  !
 ! A35   A(15,16,17)           122.6476         calculate D2E/DX2 analytically  !
 ! A36   A(15,16,19)           118.2073         calculate D2E/DX2 analytically  !
 ! A37   A(17,16,19)           119.1449         calculate D2E/DX2 analytically  !
 ! A38   A(12,17,16)           117.8891         calculate D2E/DX2 analytically  !
 ! A39   A(12,17,21)           118.7518         calculate D2E/DX2 analytically  !
 ! A40   A(16,17,21)           123.3583         calculate D2E/DX2 analytically  !
 ! A41   A(15,20,58)           110.7842         calculate D2E/DX2 analytically  !
 ! A42   A(15,20,62)           111.7369         calculate D2E/DX2 analytically  !
 ! A43   A(15,20,66)           109.7786         calculate D2E/DX2 analytically  !
 ! A44   A(58,20,62)           109.3865         calculate D2E/DX2 analytically  !
 ! A45   A(58,20,66)           106.4538         calculate D2E/DX2 analytically  !
 ! A46   A(62,20,66)           108.536          calculate D2E/DX2 analytically  !
 ! A47   A(17,21,46)           110.7856         calculate D2E/DX2 analytically  !
 ! A48   A(17,21,50)           110.7697         calculate D2E/DX2 analytically  !
 ! A49   A(17,21,54)           110.5013         calculate D2E/DX2 analytically  !
 ! A50   A(46,21,50)           106.8454         calculate D2E/DX2 analytically  !
 ! A51   A(46,21,54)           108.9775         calculate D2E/DX2 analytically  !
 ! A52   A(50,21,54)           108.8623         calculate D2E/DX2 analytically  !
 ! A53   A(12,22,45)           107.2564         calculate D2E/DX2 analytically  !
 ! A54   A(1,23,7)             102.3403         calculate D2E/DX2 analytically  !
 ! A55   A(1,23,24)             97.5945         calculate D2E/DX2 analytically  !
 ! A56   A(7,23,24)            160.0646         calculate D2E/DX2 analytically  !
 ! A57   A(23,24,27)           150.0207         calculate D2E/DX2 analytically  !
 ! A58   A(6,25,26)            116.156          calculate D2E/DX2 analytically  !
 ! A59   A(6,25,27)            115.3512         calculate D2E/DX2 analytically  !
 ! A60   A(26,25,27)           128.4928         calculate D2E/DX2 analytically  !
 ! A61   A(24,27,25)           110.3364         calculate D2E/DX2 analytically  !
 ! A62   A(24,27,28)           136.4253         calculate D2E/DX2 analytically  !
 ! A63   A(25,27,28)           113.2273         calculate D2E/DX2 analytically  !
 ! A64   A(27,28,29)           111.9981         calculate D2E/DX2 analytically  !
 ! A65   A(27,28,30)           112.8519         calculate D2E/DX2 analytically  !
 ! A66   A(27,28,31)           105.8668         calculate D2E/DX2 analytically  !
 ! A67   A(29,28,30)           110.4593         calculate D2E/DX2 analytically  !
 ! A68   A(29,28,31)           107.6661         calculate D2E/DX2 analytically  !
 ! A69   A(30,28,31)           107.6654         calculate D2E/DX2 analytically  !
 ! A70   A(28,29,32)           110.6144         calculate D2E/DX2 analytically  !
 ! A71   A(28,29,33)           108.5709         calculate D2E/DX2 analytically  !
 ! A72   A(28,29,34)           109.6235         calculate D2E/DX2 analytically  !
 ! A73   A(32,29,33)           109.7998         calculate D2E/DX2 analytically  !
 ! A74   A(32,29,34)           110.8699         calculate D2E/DX2 analytically  !
 ! A75   A(33,29,34)           107.2753         calculate D2E/DX2 analytically  !
 ! A76   A(28,30,35)           110.6925         calculate D2E/DX2 analytically  !
 ! A77   A(28,30,36)           109.0092         calculate D2E/DX2 analytically  !
 ! A78   A(28,30,37)           109.5509         calculate D2E/DX2 analytically  !
 ! A79   A(35,30,36)           109.2044         calculate D2E/DX2 analytically  !
 ! A80   A(35,30,37)           111.1496         calculate D2E/DX2 analytically  !
 ! A81   A(36,30,37)           107.1443         calculate D2E/DX2 analytically  !
 ! A82   A(29,32,38)           111.3981         calculate D2E/DX2 analytically  !
 ! A83   A(29,32,39)           110.0937         calculate D2E/DX2 analytically  !
 ! A84   A(29,32,40)           108.8633         calculate D2E/DX2 analytically  !
 ! A85   A(38,32,39)           110.5271         calculate D2E/DX2 analytically  !
 ! A86   A(38,32,40)           109.1458         calculate D2E/DX2 analytically  !
 ! A87   A(39,32,40)           106.6791         calculate D2E/DX2 analytically  !
 ! A88   A(30,35,38)           111.0709         calculate D2E/DX2 analytically  !
 ! A89   A(30,35,41)           109.8185         calculate D2E/DX2 analytically  !
 ! A90   A(30,35,42)           109.1902         calculate D2E/DX2 analytically  !
 ! A91   A(38,35,41)           110.5471         calculate D2E/DX2 analytically  !
 ! A92   A(38,35,42)           109.2874         calculate D2E/DX2 analytically  !
 ! A93   A(41,35,42)           106.8218         calculate D2E/DX2 analytically  !
 ! A94   A(32,38,35)           111.1462         calculate D2E/DX2 analytically  !
 ! A95   A(32,38,43)           110.3341         calculate D2E/DX2 analytically  !
 ! A96   A(32,38,44)           109.0442         calculate D2E/DX2 analytically  !
 ! A97   A(35,38,43)           110.3609         calculate D2E/DX2 analytically  !
 ! A98   A(35,38,44)           108.978          calculate D2E/DX2 analytically  !
 ! A99   A(43,38,44)           106.8626         calculate D2E/DX2 analytically  !
 ! A100  A(21,46,47)           109.4712         calculate D2E/DX2 analytically  !
 ! A101  A(21,46,48)           109.4712         calculate D2E/DX2 analytically  !
 ! A102  A(21,46,49)           109.4712         calculate D2E/DX2 analytically  !
 ! A103  A(47,46,48)           109.4713         calculate D2E/DX2 analytically  !
 ! A104  A(47,46,49)           109.4712         calculate D2E/DX2 analytically  !
 ! A105  A(48,46,49)           109.4712         calculate D2E/DX2 analytically  !
 ! A106  A(21,50,51)           109.4712         calculate D2E/DX2 analytically  !
 ! A107  A(21,50,52)           109.4712         calculate D2E/DX2 analytically  !
 ! A108  A(21,50,53)           109.4712         calculate D2E/DX2 analytically  !
 ! A109  A(51,50,52)           109.4713         calculate D2E/DX2 analytically  !
 ! A110  A(51,50,53)           109.4712         calculate D2E/DX2 analytically  !
 ! A111  A(52,50,53)           109.4712         calculate D2E/DX2 analytically  !
 ! A112  A(21,54,55)           109.4712         calculate D2E/DX2 analytically  !
 ! A113  A(21,54,56)           109.4712         calculate D2E/DX2 analytically  !
 ! A114  A(21,54,57)           109.4712         calculate D2E/DX2 analytically  !
 ! A115  A(55,54,56)           109.4713         calculate D2E/DX2 analytically  !
 ! A116  A(55,54,57)           109.4712         calculate D2E/DX2 analytically  !
 ! A117  A(56,54,57)           109.4712         calculate D2E/DX2 analytically  !
 ! A118  A(20,58,59)           109.4712         calculate D2E/DX2 analytically  !
 ! A119  A(20,58,60)           109.4712         calculate D2E/DX2 analytically  !
 ! A120  A(20,58,61)           109.4712         calculate D2E/DX2 analytically  !
 ! A121  A(59,58,60)           109.4713         calculate D2E/DX2 analytically  !
 ! A122  A(59,58,61)           109.4712         calculate D2E/DX2 analytically  !
 ! A123  A(60,58,61)           109.4712         calculate D2E/DX2 analytically  !
 ! A124  A(20,62,63)           109.4712         calculate D2E/DX2 analytically  !
 ! A125  A(20,62,64)           109.4712         calculate D2E/DX2 analytically  !
 ! A126  A(20,62,65)           109.4712         calculate D2E/DX2 analytically  !
 ! A127  A(63,62,64)           109.4713         calculate D2E/DX2 analytically  !
 ! A128  A(63,62,65)           109.4712         calculate D2E/DX2 analytically  !
 ! A129  A(64,62,65)           109.4712         calculate D2E/DX2 analytically  !
 ! A130  A(20,66,67)           109.4712         calculate D2E/DX2 analytically  !
 ! A131  A(20,66,68)           109.4712         calculate D2E/DX2 analytically  !
 ! A132  A(20,66,69)           109.4712         calculate D2E/DX2 analytically  !
 ! A133  A(67,66,68)           109.4713         calculate D2E/DX2 analytically  !
 ! A134  A(67,66,69)           109.4712         calculate D2E/DX2 analytically  !
 ! A135  A(68,66,69)           109.4712         calculate D2E/DX2 analytically  !
 ! D1    D(6,1,2,3)              0.1821         calculate D2E/DX2 analytically  !
 ! D2    D(6,1,2,11)           179.7342         calculate D2E/DX2 analytically  !
 ! D3    D(23,1,2,3)          -179.5918         calculate D2E/DX2 analytically  !
 ! D4    D(23,1,2,11)           -0.0397         calculate D2E/DX2 analytically  !
 ! D5    D(2,1,6,5)             -0.0858         calculate D2E/DX2 analytically  !
 ! D6    D(2,1,6,25)          -179.8726         calculate D2E/DX2 analytically  !
 ! D7    D(23,1,6,5)           179.6559         calculate D2E/DX2 analytically  !
 ! D8    D(23,1,6,25)           -0.1309         calculate D2E/DX2 analytically  !
 ! D9    D(2,1,23,7)             0.1324         calculate D2E/DX2 analytically  !
 ! D10   D(2,1,23,24)          179.9768         calculate D2E/DX2 analytically  !
 ! D11   D(6,1,23,7)          -179.6352         calculate D2E/DX2 analytically  !
 ! D12   D(6,1,23,24)            0.2092         calculate D2E/DX2 analytically  !
 ! D13   D(1,2,3,4)             -0.1876         calculate D2E/DX2 analytically  !
 ! D14   D(1,2,3,8)            179.7356         calculate D2E/DX2 analytically  !
 ! D15   D(11,2,3,4)          -179.6127         calculate D2E/DX2 analytically  !
 ! D16   D(11,2,3,8)             0.3105         calculate D2E/DX2 analytically  !
 ! D17   D(1,2,11,7)            -0.0847         calculate D2E/DX2 analytically  !
 ! D18   D(3,2,11,7)           179.3939         calculate D2E/DX2 analytically  !
 ! D19   D(2,3,4,5)              0.1142         calculate D2E/DX2 analytically  !
 ! D20   D(2,3,4,9)           -179.8792         calculate D2E/DX2 analytically  !
 ! D21   D(8,3,4,5)           -179.8084         calculate D2E/DX2 analytically  !
 ! D22   D(8,3,4,9)              0.1981         calculate D2E/DX2 analytically  !
 ! D23   D(3,4,5,6)             -0.0247         calculate D2E/DX2 analytically  !
 ! D24   D(3,4,5,10)          -179.971          calculate D2E/DX2 analytically  !
 ! D25   D(9,4,5,6)            179.9688         calculate D2E/DX2 analytically  !
 ! D26   D(9,4,5,10)             0.0225         calculate D2E/DX2 analytically  !
 ! D27   D(4,5,6,1)              0.0072         calculate D2E/DX2 analytically  !
 ! D28   D(4,5,6,25)           179.7889         calculate D2E/DX2 analytically  !
 ! D29   D(10,5,6,1)           179.9536         calculate D2E/DX2 analytically  !
 ! D30   D(10,5,6,25)           -0.2646         calculate D2E/DX2 analytically  !
 ! D31   D(1,6,25,26)          179.3367         calculate D2E/DX2 analytically  !
 ! D32   D(1,6,25,27)           -0.6249         calculate D2E/DX2 analytically  !
 ! D33   D(5,6,25,26)           -0.4327         calculate D2E/DX2 analytically  !
 ! D34   D(5,6,25,27)          179.6057         calculate D2E/DX2 analytically  !
 ! D35   D(13,7,11,2)         -179.3079         calculate D2E/DX2 analytically  !
 ! D36   D(23,7,11,2)            0.1718         calculate D2E/DX2 analytically  !
 ! D37   D(11,7,13,12)          -0.4724         calculate D2E/DX2 analytically  !
 ! D38   D(11,7,13,14)         178.6999         calculate D2E/DX2 analytically  !
 ! D39   D(23,7,13,12)        -179.8572         calculate D2E/DX2 analytically  !
 ! D40   D(23,7,13,14)          -0.685          calculate D2E/DX2 analytically  !
 ! D41   D(11,7,23,1)           -0.1899         calculate D2E/DX2 analytically  !
 ! D42   D(11,7,23,24)        -179.7375         calculate D2E/DX2 analytically  !
 ! D43   D(13,7,23,1)          179.2429         calculate D2E/DX2 analytically  !
 ! D44   D(13,7,23,24)          -0.3047         calculate D2E/DX2 analytically  !
 ! D45   D(17,12,13,7)        -179.8399         calculate D2E/DX2 analytically  !
 ! D46   D(17,12,13,14)          0.9449         calculate D2E/DX2 analytically  !
 ! D47   D(22,12,13,7)           0.4447         calculate D2E/DX2 analytically  !
 ! D48   D(22,12,13,14)       -178.7706         calculate D2E/DX2 analytically  !
 ! D49   D(13,12,17,16)         -1.0454         calculate D2E/DX2 analytically  !
 ! D50   D(13,12,17,21)        179.2805         calculate D2E/DX2 analytically  !
 ! D51   D(22,12,17,16)        178.6757         calculate D2E/DX2 analytically  !
 ! D52   D(22,12,17,21)         -0.9984         calculate D2E/DX2 analytically  !
 ! D53   D(13,12,22,45)         -0.1761         calculate D2E/DX2 analytically  !
 ! D54   D(17,12,22,45)       -179.8943         calculate D2E/DX2 analytically  !
 ! D55   D(7,13,14,15)        -179.2677         calculate D2E/DX2 analytically  !
 ! D56   D(7,13,14,18)           0.3796         calculate D2E/DX2 analytically  !
 ! D57   D(12,13,14,15)         -0.1165         calculate D2E/DX2 analytically  !
 ! D58   D(12,13,14,18)        179.5308         calculate D2E/DX2 analytically  !
 ! D59   D(13,14,15,16)         -0.5848         calculate D2E/DX2 analytically  !
 ! D60   D(13,14,15,20)        178.4575         calculate D2E/DX2 analytically  !
 ! D61   D(18,14,15,16)        179.7654         calculate D2E/DX2 analytically  !
 ! D62   D(18,14,15,20)         -1.1922         calculate D2E/DX2 analytically  !
 ! D63   D(14,15,16,17)          0.4742         calculate D2E/DX2 analytically  !
 ! D64   D(14,15,16,19)       -179.3633         calculate D2E/DX2 analytically  !
 ! D65   D(20,15,16,17)       -178.5814         calculate D2E/DX2 analytically  !
 ! D66   D(20,15,16,19)          1.5812         calculate D2E/DX2 analytically  !
 ! D67   D(14,15,20,58)        131.5751         calculate D2E/DX2 analytically  !
 ! D68   D(14,15,20,62)          9.3297         calculate D2E/DX2 analytically  !
 ! D69   D(14,15,20,66)       -111.1386         calculate D2E/DX2 analytically  !
 ! D70   D(16,15,20,58)        -49.3832         calculate D2E/DX2 analytically  !
 ! D71   D(16,15,20,62)       -171.6286         calculate D2E/DX2 analytically  !
 ! D72   D(16,15,20,66)         67.9031         calculate D2E/DX2 analytically  !
 ! D73   D(15,16,17,12)          0.3458         calculate D2E/DX2 analytically  !
 ! D74   D(15,16,17,21)       -179.9963         calculate D2E/DX2 analytically  !
 ! D75   D(19,16,17,12)       -179.8182         calculate D2E/DX2 analytically  !
 ! D76   D(19,16,17,21)         -0.1603         calculate D2E/DX2 analytically  !
 ! D77   D(12,17,21,46)        -56.889          calculate D2E/DX2 analytically  !
 ! D78   D(12,17,21,50)         61.5007         calculate D2E/DX2 analytically  !
 ! D79   D(12,17,21,54)       -177.7718         calculate D2E/DX2 analytically  !
 ! D80   D(16,17,21,46)        123.4559         calculate D2E/DX2 analytically  !
 ! D81   D(16,17,21,50)       -118.1544         calculate D2E/DX2 analytically  !
 ! D82   D(16,17,21,54)          2.5731         calculate D2E/DX2 analytically  !
 ! D83   D(15,20,58,59)         80.5649         calculate D2E/DX2 analytically  !
 ! D84   D(15,20,58,60)       -159.435          calculate D2E/DX2 analytically  !
 ! D85   D(15,20,58,61)        -39.435          calculate D2E/DX2 analytically  !
 ! D86   D(62,20,58,59)       -155.8281         calculate D2E/DX2 analytically  !
 ! D87   D(62,20,58,60)        -35.828          calculate D2E/DX2 analytically  !
 ! D88   D(62,20,58,61)         84.1719         calculate D2E/DX2 analytically  !
 ! D89   D(66,20,58,59)        -38.7421         calculate D2E/DX2 analytically  !
 ! D90   D(66,20,58,60)         81.2579         calculate D2E/DX2 analytically  !
 ! D91   D(66,20,58,61)       -158.7421         calculate D2E/DX2 analytically  !
 ! D92   D(15,20,62,63)        -64.3652         calculate D2E/DX2 analytically  !
 ! D93   D(15,20,62,64)         55.6348         calculate D2E/DX2 analytically  !
 ! D94   D(15,20,62,65)        175.6348         calculate D2E/DX2 analytically  !
 ! D95   D(58,20,62,63)        172.5916         calculate D2E/DX2 analytically  !
 ! D96   D(58,20,62,64)        -67.4084         calculate D2E/DX2 analytically  !
 ! D97   D(58,20,62,65)         52.5916         calculate D2E/DX2 analytically  !
 ! D98   D(66,20,62,63)         56.8264         calculate D2E/DX2 analytically  !
 ! D99   D(66,20,62,64)        176.8264         calculate D2E/DX2 analytically  !
 ! D100  D(66,20,62,65)        -63.1736         calculate D2E/DX2 analytically  !
 ! D101  D(15,20,66,67)        167.8028         calculate D2E/DX2 analytically  !
 ! D102  D(15,20,66,68)        -72.1972         calculate D2E/DX2 analytically  !
 ! D103  D(15,20,66,69)         47.8028         calculate D2E/DX2 analytically  !
 ! D104  D(58,20,66,67)        -72.2369         calculate D2E/DX2 analytically  !
 ! D105  D(58,20,66,68)         47.7632         calculate D2E/DX2 analytically  !
 ! D106  D(58,20,66,69)        167.7632         calculate D2E/DX2 analytically  !
 ! D107  D(62,20,66,67)         45.4136         calculate D2E/DX2 analytically  !
 ! D108  D(62,20,66,68)        165.4136         calculate D2E/DX2 analytically  !
 ! D109  D(62,20,66,69)        -74.5864         calculate D2E/DX2 analytically  !
 ! D110  D(17,21,46,47)         95.8527         calculate D2E/DX2 analytically  !
 ! D111  D(17,21,46,48)       -144.1473         calculate D2E/DX2 analytically  !
 ! D112  D(17,21,46,49)        -24.1473         calculate D2E/DX2 analytically  !
 ! D113  D(50,21,46,47)        -24.8934         calculate D2E/DX2 analytically  !
 ! D114  D(50,21,46,48)         95.1067         calculate D2E/DX2 analytically  !
 ! D115  D(50,21,46,49)       -144.8934         calculate D2E/DX2 analytically  !
 ! D116  D(54,21,46,47)       -142.3662         calculate D2E/DX2 analytically  !
 ! D117  D(54,21,46,48)        -22.3662         calculate D2E/DX2 analytically  !
 ! D118  D(54,21,46,49)         97.6338         calculate D2E/DX2 analytically  !
 ! D119  D(17,21,50,51)        146.7893         calculate D2E/DX2 analytically  !
 ! D120  D(17,21,50,52)        -93.2107         calculate D2E/DX2 analytically  !
 ! D121  D(17,21,50,53)         26.7893         calculate D2E/DX2 analytically  !
 ! D122  D(46,21,50,51)        -92.4545         calculate D2E/DX2 analytically  !
 ! D123  D(46,21,50,52)         27.5455         calculate D2E/DX2 analytically  !
 ! D124  D(46,21,50,53)        147.5455         calculate D2E/DX2 analytically  !
 ! D125  D(54,21,50,51)         25.0942         calculate D2E/DX2 analytically  !
 ! D126  D(54,21,50,52)        145.0942         calculate D2E/DX2 analytically  !
 ! D127  D(54,21,50,53)        -94.9058         calculate D2E/DX2 analytically  !
 ! D128  D(17,21,54,55)        -60.8716         calculate D2E/DX2 analytically  !
 ! D129  D(17,21,54,56)         59.1284         calculate D2E/DX2 analytically  !
 ! D130  D(17,21,54,57)        179.1284         calculate D2E/DX2 analytically  !
 ! D131  D(46,21,54,55)        177.1751         calculate D2E/DX2 analytically  !
 ! D132  D(46,21,54,56)        -62.8249         calculate D2E/DX2 analytically  !
 ! D133  D(46,21,54,57)         57.1751         calculate D2E/DX2 analytically  !
 ! D134  D(50,21,54,55)         60.9866         calculate D2E/DX2 analytically  !
 ! D135  D(50,21,54,56)       -179.0134         calculate D2E/DX2 analytically  !
 ! D136  D(50,21,54,57)        -59.0134         calculate D2E/DX2 analytically  !
 ! D137  D(1,23,24,27)           0.7877         calculate D2E/DX2 analytically  !
 ! D138  D(7,23,24,27)        -179.6582         calculate D2E/DX2 analytically  !
 ! D139  D(23,24,27,25)         -1.5391         calculate D2E/DX2 analytically  !
 ! D140  D(23,24,27,28)        179.7982         calculate D2E/DX2 analytically  !
 ! D141  D(6,25,27,24)           1.0714         calculate D2E/DX2 analytically  !
 ! D142  D(6,25,27,28)        -179.9316         calculate D2E/DX2 analytically  !
 ! D143  D(26,25,27,24)       -178.8845         calculate D2E/DX2 analytically  !
 ! D144  D(26,25,27,28)          0.1125         calculate D2E/DX2 analytically  !
 ! D145  D(24,27,28,29)        112.1725         calculate D2E/DX2 analytically  !
 ! D146  D(24,27,28,30)       -122.4227         calculate D2E/DX2 analytically  !
 ! D147  D(24,27,28,31)         -4.898          calculate D2E/DX2 analytically  !
 ! D148  D(25,27,28,29)        -66.463          calculate D2E/DX2 analytically  !
 ! D149  D(25,27,28,30)         58.9418         calculate D2E/DX2 analytically  !
 ! D150  D(25,27,28,31)        176.4664         calculate D2E/DX2 analytically  !
 ! D151  D(27,28,29,32)       -176.2312         calculate D2E/DX2 analytically  !
 ! D152  D(27,28,29,33)         63.2271         calculate D2E/DX2 analytically  !
 ! D153  D(27,28,29,34)        -53.6696         calculate D2E/DX2 analytically  !
 ! D154  D(30,28,29,32)         57.0591         calculate D2E/DX2 analytically  !
 ! D155  D(30,28,29,33)        -63.4826         calculate D2E/DX2 analytically  !
 ! D156  D(30,28,29,34)        179.6207         calculate D2E/DX2 analytically  !
 ! D157  D(31,28,29,32)        -60.2467         calculate D2E/DX2 analytically  !
 ! D158  D(31,28,29,33)        179.2116         calculate D2E/DX2 analytically  !
 ! D159  D(31,28,29,34)         62.3149         calculate D2E/DX2 analytically  !
 ! D160  D(27,28,30,35)        176.3426         calculate D2E/DX2 analytically  !
 ! D161  D(27,28,30,36)        -63.523          calculate D2E/DX2 analytically  !
 ! D162  D(27,28,30,37)         53.4261         calculate D2E/DX2 analytically  !
 ! D163  D(29,28,30,35)        -57.4243         calculate D2E/DX2 analytically  !
 ! D164  D(29,28,30,36)         62.7101         calculate D2E/DX2 analytically  !
 ! D165  D(29,28,30,37)        179.6591         calculate D2E/DX2 analytically  !
 ! D166  D(31,28,30,35)         59.8819         calculate D2E/DX2 analytically  !
 ! D167  D(31,28,30,36)       -179.9837         calculate D2E/DX2 analytically  !
 ! D168  D(31,28,30,37)        -63.0347         calculate D2E/DX2 analytically  !
 ! D169  D(28,29,32,38)        -56.1234         calculate D2E/DX2 analytically  !
 ! D170  D(28,29,32,39)       -179.1051         calculate D2E/DX2 analytically  !
 ! D171  D(28,29,32,40)         64.283          calculate D2E/DX2 analytically  !
 ! D172  D(33,29,32,38)         63.6828         calculate D2E/DX2 analytically  !
 ! D173  D(33,29,32,39)        -59.2988         calculate D2E/DX2 analytically  !
 ! D174  D(33,29,32,40)       -175.9108         calculate D2E/DX2 analytically  !
 ! D175  D(34,29,32,38)       -177.9548         calculate D2E/DX2 analytically  !
 ! D176  D(34,29,32,39)         59.0635         calculate D2E/DX2 analytically  !
 ! D177  D(34,29,32,40)        -57.5485         calculate D2E/DX2 analytically  !
 ! D178  D(28,30,35,38)         56.6129         calculate D2E/DX2 analytically  !
 ! D179  D(28,30,35,41)        179.2052         calculate D2E/DX2 analytically  !
 ! D180  D(28,30,35,42)        -63.9775         calculate D2E/DX2 analytically  !
 ! D181  D(36,30,35,38)        -63.4048         calculate D2E/DX2 analytically  !
 ! D182  D(36,30,35,41)         59.1876         calculate D2E/DX2 analytically  !
 ! D183  D(36,30,35,42)        176.0048         calculate D2E/DX2 analytically  !
 ! D184  D(37,30,35,38)        178.5968         calculate D2E/DX2 analytically  !
 ! D185  D(37,30,35,41)        -58.8108         calculate D2E/DX2 analytically  !
 ! D186  D(37,30,35,42)         58.0064         calculate D2E/DX2 analytically  !
 ! D187  D(29,32,38,35)         55.2665         calculate D2E/DX2 analytically  !
 ! D188  D(29,32,38,43)        178.0309         calculate D2E/DX2 analytically  !
 ! D189  D(29,32,38,44)        -64.8918         calculate D2E/DX2 analytically  !
 ! D190  D(39,32,38,35)        177.9998         calculate D2E/DX2 analytically  !
 ! D191  D(39,32,38,43)        -59.2357         calculate D2E/DX2 analytically  !
 ! D192  D(39,32,38,44)         57.8415         calculate D2E/DX2 analytically  !
 ! D193  D(40,32,38,35)        -64.9735         calculate D2E/DX2 analytically  !
 ! D194  D(40,32,38,43)         57.7909         calculate D2E/DX2 analytically  !
 ! D195  D(40,32,38,44)        174.8682         calculate D2E/DX2 analytically  !
 ! D196  D(30,35,38,32)        -55.3996         calculate D2E/DX2 analytically  !
 ! D197  D(30,35,38,43)       -178.1487         calculate D2E/DX2 analytically  !
 ! D198  D(30,35,38,44)         64.7979         calculate D2E/DX2 analytically  !
 ! D199  D(41,35,38,32)       -177.5697         calculate D2E/DX2 analytically  !
 ! D200  D(41,35,38,43)         59.6813         calculate D2E/DX2 analytically  !
 ! D201  D(41,35,38,44)        -57.3721         calculate D2E/DX2 analytically  !
 ! D202  D(42,35,38,32)         65.1333         calculate D2E/DX2 analytically  !
 ! D203  D(42,35,38,43)        -57.6157         calculate D2E/DX2 analytically  !
 ! D204  D(42,35,38,44)       -174.6691         calculate D2E/DX2 analytically  !
 --------------------------------------------------------------------------------
 Trust Radius=3.00D-01 FncErr=5.00D-06 GrdErr=5.00D-06 EigMax=2.50D+02 EigMin=1.00D-04
 Number of steps in this run=    414 maximum allowed number of steps=    414.
 Search for a saddle point of order  1.
 GradGradGradGradGradGradGradGradGradGradGradGradGradGradGradGradGradGrad

 Leave Link  103 at Thu Dec 20 18:56:30 2018, MaxMem=  1342177280 cpu:               0.5 elap:               0.1
 (Enter /gpfs/apps/hpc/Apps/Restricted/Gaussian/Rev_A.03/g16/l202.exe)
 Symmetry turned off by external request.
 Stoichiometry    C28H37N3O(1+,2)
 Framework group  C1[X(C28H37N3O)]
 Deg. of freedom   201
 Full point group                 C1      NOp   1
                          Input orientation:                          
 ---------------------------------------------------------------------
 Center     Atomic      Atomic             Coordinates (Angstroms)
 Number     Number       Type             X           Y           Z
 ---------------------------------------------------------------------
      1          6           0       -0.424191    2.671740    0.277732
      2          6           0       -1.835682    2.792786    0.237620
      3          6           0       -2.433932    4.058781    0.141547
      4          6           0       -1.585080    5.155900    0.093569
      5          6           0       -0.178679    5.020674    0.136079
      6          6           0        0.442832    3.776169    0.229386
      7          6           0       -1.336685    0.666036    0.369264
      8          1           0       -3.510066    4.168869    0.105523
      9          1           0       -2.007926    6.150438    0.021308
     10          1           0        0.438200    5.910889    0.095889
     11          7           0       -2.365591    1.525508    0.297750
     12          6           0       -2.958184   -1.189148    0.419530
     13          6           0       -1.566044   -0.752745    0.429680
     14          6           0       -0.559056   -1.702807    0.478795
     15          6           0       -0.866807   -3.072047    0.521013
     16          6           0       -2.230640   -3.484783    0.525765
     17          6           0       -3.273484   -2.594493    0.480952
     18          1           0        0.478651   -1.392386    0.479165
     19          1           0       -2.444521   -4.546836    0.569291
     20          6           0        0.214153   -4.101092    0.539564
     21          6           0       -4.709834   -3.009811    0.485260
     22          8           0       -3.922550   -0.333742    0.350531
     23          7           0       -0.041768    1.378488    0.361668
     24          1           0        1.312351    1.590848    0.380557
     25          6           0        1.894450    3.603352    0.270844
     26          1           0        2.491136    4.519343    0.216736
     27          7           0        2.301506    2.387790    0.365818
     28          6           0        3.765692    2.268307    0.405336
     29          6           0        4.414433    2.694917   -0.921926
     30          6           0        4.395593    3.032430    1.581448
     31          1           0        3.975488    1.202730    0.550612
     32          6           0        5.930040    2.470038   -0.878632
     33          1           0        4.201207    3.757458   -1.089221
     34          1           0        3.961288    2.138616   -1.747921
     35          6           0        5.909998    2.801097    1.628659
     36          1           0        4.198078    4.103896    1.457989
     37          1           0        3.919640    2.722421    2.516322
     38          6           0        6.570711    3.203827    0.304888
     39          1           0        6.384717    2.790958   -1.820617
     40          1           0        6.126588    1.394538   -0.784351
     41          1           0        6.345200    3.361985    2.461374
     42          1           0        6.106757    1.739451    1.823661
     43          1           0        7.645838    3.003461    0.339572
     44          1           0        6.452944    4.285353    0.161808
     45          1           0       -3.455509    0.696067    0.309977
     46          6           0       -5.465569   -2.351501    1.654487
     47          1           0       -5.954833   -1.464907    1.308839
     48          1           0       -6.194394   -3.034697    2.037837
     49          1           0       -4.772569   -2.097500    2.429170
     50          6           0       -5.412137   -2.560408   -0.809501
     51          1           0       -6.158467   -3.278542   -1.078159
     52          1           0       -5.873734   -1.607909   -0.652739
     53          1           0       -4.692176   -2.482526   -1.597213
     54          6           0       -4.828424   -4.540113    0.610604
     55          1           0       -4.347826   -5.004718   -0.224901
     56          1           0       -4.358160   -4.861285    1.516474
     57          1           0       -5.861681   -4.817599    0.627328
     58          6           0       -0.038030   -5.138610    1.649320
     59          1           0       -0.754746   -5.856922    1.309841
     60          1           0        0.879070   -5.635320    1.888291
     61          1           0       -0.413633   -4.644462    2.520894
     62          6           0        1.602792   -3.466022    0.739483
     63          1           0        1.833680   -2.842161   -0.098602
     64          1           0        1.600318   -2.876904    1.632698
     65          1           0        2.339212   -4.237752    0.823258
     66          6           0        0.217667   -4.877224   -0.790551
     67          1           0        1.112850   -5.459025   -0.861647
     68          1           0       -0.632858   -5.525406   -0.827526
     69          1           0        0.175450   -4.186501   -1.606652
 ---------------------------------------------------------------------
 Rotational constants (GHZ):           0.1874589           0.0722485           0.0544918
 Leave Link  202 at Thu Dec 20 18:56:30 2018, MaxMem=  1342177280 cpu:               0.1 elap:               0.0
 (Enter /gpfs/apps/hpc/Apps/Restricted/Gaussian/Rev_A.03/g16/l301.exe)
 Standard basis: 6-31G(d,p) (6D, 7F)
 Ernie: Thresh=  0.10000D-02 Tol=  0.10000D-05 Strict=F.
   665 basis functions,  1155 primitive gaussians,   665 cartesian basis functions
   117 alpha electrons      116 beta electrons
       nuclear repulsion energy      3187.5153829069 Hartrees.
 IExCor=  402 DFT=T Ex+Corr=B3LYP ExCW=0 ScaHFX=  0.200000
 ScaDFX=  0.800000  0.720000  1.000000  0.810000 ScalE2=  1.000000  1.000000
 IRadAn=      5 IRanWt=     -1 IRanGd=            0 ICorTp=0 IEmpDi=141
 NAtoms=   69 NActive=   69 NUniq=   69 SFac= 1.00D+00 NAtFMM=   60 NAOKFM=T Big=T
 Integral buffers will be    131072 words long.
 Raffenetti 2 integral format.
 Two-electron integral symmetry is turned off.
 R6Disp:  Grimme-D3(BJ) Dispersion energy=       -0.1511282073 Hartrees.
 Nuclear repulsion after empirical dispersion term =     3187.3642546996 Hartrees.
 Force inversion solution in PCM.
 Using the following non-standard input for PCM:
 radii=bondi
 dis
 rep
 cav
 --- end of non-standard input.
 Force inversion solution in PCM.
 ------------------------------------------------------------------------------
 Polarizable Continuum Model (PCM)
 =================================
 Model                : C-PCM.
 Atomic radii         : Bondi.
 Polarization charges : Total charges.
 Charge compensation  : None.
 Solution method      : Matrix inversion.
 Cavity type          : Scaled VdW (van der Waals Surface) (Alpha=1.100).
 Cavity algorithm     : GePol (No added spheres)
                        Default sphere list used, NSphG=   69.
                        Lebedev-Laikov grids with approx.  5.0 points / Ang**2.
                        Smoothing algorithm: York/Karplus (Gamma=1.0000).
                        Polarization charges: spherical gaussians, with
                                              point-specific exponents (IZeta= 3).
                        Self-potential: point-specific (ISelfS= 7).
                        Self-field    : sphere-specific E.n sum rule (ISelfD= 2).
 1st derivatives      : Analytical E(r).r(x)/FMM algorithm (CHGder, D1EAlg=3).
                        Cavity 1st derivative terms included.
 2nd derivatives      : Analytical E(r).r(xy)/FMM algorithm (CHGder, D2EAlg=3).
                        Cavity 2nd derivative terms included.
 Solvent              : Dichloromethane, Eps=   8.930000 Eps(inf)=   2.028346
 ------------------------------------------------------------------------------
 GePol: Number of generator spheres                  =      69
 GePol: Total number of spheres                      =      69
 GePol: Number of exposed spheres                    =      69 (100.00%)
 GePol: Number of points                             =    4291
 GePol: Average weight of points                     =       0.12
 GePol: Minimum weight of points                     =   0.23D-10
 GePol: Maximum weight of points                     =    0.21770
 GePol: Number of points with low weight             =     319
 GePol: Fraction of low-weight points (<1% of avg)   =       7.43%
 GePol: Cavity surface area                          =    508.511 Ang**2
 GePol: Cavity volume                                =    494.340 Ang**3
 PCM non-electrostatic energy =         0.0236511211 Hartrees.
 Nuclear repulsion after PCM non-electrostatic terms =     3187.3879058207 Hartrees.
 Leave Link  301 at Thu Dec 20 18:56:30 2018, MaxMem=  1342177280 cpu:               4.2 elap:               0.3
 (Enter /gpfs/apps/hpc/Apps/Restricted/Gaussian/Rev_A.03/g16/l302.exe)
 NPDir=0 NMtPBC=     1 NCelOv=     1 NCel=       1 NClECP=     1 NCelD=      1
         NCelK=      1 NCelE2=     1 NClLst=     1 CellRange=     0.0.
 One-electron integrals computed using PRISM.
 NBasis=   665 RedAO= T EigKep=  3.04D-04  NBF=   665
 NBsUse=   665 1.00D-06 EigRej= -1.00D+00 NBFU=   665
 Precomputing XC quadrature grid using
 IXCGrd= 4 IRadAn=           5 IRanWt=          -1 IRanGd=           0 AccXCQ= 0.00D+00.
 Generated NRdTot=       0 NPtTot=           0 NUsed=           0 NTot=          32
 NSgBfM=   647   647   647   647   647 MxSgAt=    69 MxSgA2=    69.
 Leave Link  302 at Thu Dec 20 18:56:32 2018, MaxMem=  1342177280 cpu:              20.8 elap:               1.3
 (Enter /gpfs/apps/hpc/Apps/Restricted/Gaussian/Rev_A.03/g16/l303.exe)
 DipDrv:  MaxL=1.
 Leave Link  303 at Thu Dec 20 18:56:32 2018, MaxMem=  1342177280 cpu:               2.2 elap:               0.2
 (Enter /gpfs/apps/hpc/Apps/Restricted/Gaussian/Rev_A.03/g16/l401.exe)
 ExpMin= 1.61D-01 ExpMax= 5.48D+03 ExpMxC= 8.25D+02 IAcc=3 IRadAn=         5 AccDes= 0.00D+00
 Harris functional with IExCor=  402 and IRadAn=       5 diagonalized for initial guess.
 HarFok:  IExCor=  402 AccDes= 0.00D+00 IRadAn=         5 IDoV= 1 UseB2=F ITyADJ=14
 ICtDFT=  3500011 ScaDFX=  1.000000  1.000000  1.000000  1.000000
 FoFCou: FMM=F IPFlag=           0 FMFlag=      100000 FMFlg1=        2001
         NFxFlg=           0 DoJE=T BraDBF=F KetDBF=T FulRan=T
         wScrn=  0.000000 ICntrl=       500 IOpCl=  0 I1Cent=   200000004 NGrid=           0
         NMat0=    1 NMatS0=      1 NMatT0=    0 NMatD0=    1 NMtDS0=    0 NMtDT0=    0
 Symmetry not used in FoFCou.
 Harris En= -1328.75036149147    
 JPrj=0 DoOrth=F DoCkMO=F.
 Initial guess <Sx>= 0.0000 <Sy>= 0.0000 <Sz>= 0.5000 <S**2>= 0.7500 S= 0.5000
 Leave Link  401 at Thu Dec 20 18:56:37 2018, MaxMem=  1342177280 cpu:              78.8 elap:               5.0
 (Enter /gpfs/apps/hpc/Apps/Restricted/Gaussian/Rev_A.03/g16/l502.exe)
 Two-electron integral symmetry not used.
 UHF open shell SCF:
 Using DIIS extrapolation, IDIIS=  1040.
 NGot=  1342177280 LenX=  1341276554 LenY=  1340833664
 Requested convergence on RMS density matrix=1.00D-08 within 128 cycles.
 Requested convergence on MAX density matrix=1.00D-06.
 Requested convergence on             energy=1.00D-06.
 No special actions if energy rises.
 Fock matrices will be formed incrementally for  20 cycles.

 Cycle   1  Pass 1  IDiag  1:
 FoFJK:  IHMeth= 1 ICntrl=       0 DoSepK=F KAlg= 0 I1Cent=           0 FoldK=F
 IRaf= 760000000 NMat=       1 IRICut=       1 DoRegI=T DoRafI=F ISym2E= 0 IDoP0=0 IntGTp=1.
 FoFCou: FMM=T IPFlag=           0 FMFlag=      100000 FMFlg1=        2001
         NFxFlg=           0 DoJE=F BraDBF=F KetDBF=F FulRan=T
         wScrn=  0.000000 ICntrl=         0 IOpCl=  1 I1Cent=           0 NGrid=           0
         NMat0=    1 NMatS0=      1 NMatT0=    0 NMatD0=    1 NMtDS0=    0 NMtDT0=    0
 Symmetry not used in FoFCou.
 FMM levels:  10  Number of levels for PrismC:   9
 Inv3:  Mode=1 IEnd=    55238043.
 Iteration    1 A*A^-1 deviation from unit magnitude is 1.24D-14 for    264.
 Iteration    1 A*A^-1 deviation from orthogonality  is 3.24D-15 for   2565   1138.
 Iteration    1 A^-1*A deviation from unit magnitude is 1.22D-14 for    264.
 Iteration    1 A^-1*A deviation from orthogonality  is 3.01D-15 for   4271   3435.
 E= -1327.91676795761    
 DIIS: error= 3.07D-02 at cycle   1 NSaved=   1.
 NSaved= 1 IEnMin= 1 EnMin= -1327.91676795761     IErMin= 1 ErrMin= 3.07D-02
 ErrMax= 3.07D-02  0.00D+00 EMaxC= 1.00D-01 BMatC= 3.16D+00 BMatP= 3.16D+00
 IDIUse=3 WtCom= 6.93D-01 WtEn= 3.07D-01
 Coeff-Com:  0.100D+01
 Coeff-En:   0.100D+01
 Coeff:      0.100D+01
 Gap=     0.133 Goal=   None    Shift=    0.000
 Gap=     0.049 Goal=   None    Shift=    0.000
 GapD=    0.049 DampG=0.250 DampE=0.500 DampFc=0.2500 IDamp=-1.
 Damping current iteration by 2.50D-01
 RMSDP=3.16D-03 MaxDP=1.39D-01              OVMax= 3.95D-01

 Cycle   2  Pass 1  IDiag  1:
 RMSU=  7.69D-04    CP:  9.84D-01
 E= -1328.21905960898     Delta-E=       -0.302291651367 Rises=F Damp=T
 DIIS: error= 1.62D-02 at cycle   2 NSaved=   2.
 NSaved= 2 IEnMin= 2 EnMin= -1328.21905960898     IErMin= 2 ErrMin= 1.62D-02
 ErrMax= 1.62D-02  0.00D+00 EMaxC= 1.00D-01 BMatC= 8.32D-01 BMatP= 3.16D+00
 IDIUse=3 WtCom= 8.38D-01 WtEn= 1.62D-01
 Coeff-Com: -0.853D+00 0.185D+01
 Coeff-En:   0.000D+00 0.100D+01
 Coeff:     -0.715D+00 0.171D+01
 Gap=     0.162 Goal=   None    Shift=    0.000
 Gap=     0.064 Goal=   None    Shift=    0.000
 RMSDP=1.17D-03 MaxDP=7.49D-02 DE=-3.02D-01 OVMax= 3.41D-01

 Cycle   3  Pass 1  IDiag  1:
 RMSU=  8.39D-04    CP:  9.54D-01  1.96D+00
 E= -1328.72621895556     Delta-E=       -0.507159346585 Rises=F Damp=F
 DIIS: error= 5.79D-03 at cycle   3 NSaved=   3.
 NSaved= 3 IEnMin= 3 EnMin= -1328.72621895556     IErMin= 3 ErrMin= 5.79D-03
 ErrMax= 5.79D-03  0.00D+00 EMaxC= 1.00D-01 BMatC= 1.03D-01 BMatP= 8.32D-01
 IDIUse=3 WtCom= 9.42D-01 WtEn= 5.79D-02
 Coeff-Com: -0.323D+00 0.714D+00 0.609D+00
 Coeff-En:   0.000D+00 0.000D+00 0.100D+01
 Coeff:     -0.304D+00 0.673D+00 0.632D+00
 Gap=     0.136 Goal=   None    Shift=    0.000
 Gap=     0.055 Goal=   None    Shift=    0.000
 RMSDP=4.41D-04 MaxDP=4.16D-02 DE=-5.07D-01 OVMax= 1.55D-01

 Cycle   4  Pass 1  IDiag  1:
 RMSU=  3.51D-04    CP:  9.57D-01  1.99D+00  6.86D-01
 E= -1328.74256726305     Delta-E=       -0.016348307487 Rises=F Damp=F
 DIIS: error= 4.04D-03 at cycle   4 NSaved=   4.
 NSaved= 4 IEnMin= 4 EnMin= -1328.74256726305     IErMin= 4 ErrMin= 4.04D-03
 ErrMax= 4.04D-03  0.00D+00 EMaxC= 1.00D-01 BMatC= 4.75D-02 BMatP= 1.03D-01
 IDIUse=3 WtCom= 9.60D-01 WtEn= 4.04D-02
 Coeff-Com: -0.438D-01 0.116D+00 0.400D+00 0.528D+00
 Coeff-En:   0.000D+00 0.000D+00 0.307D+00 0.693D+00
 Coeff:     -0.421D-01 0.111D+00 0.396D+00 0.535D+00
 Gap=     0.139 Goal=   None    Shift=    0.000
 Gap=     0.056 Goal=   None    Shift=    0.000
 RMSDP=1.89D-04 MaxDP=2.06D-02 DE=-1.63D-02 OVMax= 4.07D-02

 Cycle   5  Pass 1  IDiag  1:
 RMSU=  1.04D-04    CP:  9.56D-01  1.96D+00  7.88D-01  6.29D-01
 E= -1328.75341180416     Delta-E=       -0.010844541106 Rises=F Damp=F
 DIIS: error= 1.04D-03 at cycle   5 NSaved=   5.
 NSaved= 5 IEnMin= 5 EnMin= -1328.75341180416     IErMin= 5 ErrMin= 1.04D-03
 ErrMax= 1.04D-03  0.00D+00 EMaxC= 1.00D-01 BMatC= 2.68D-03 BMatP= 4.75D-02
 IDIUse=3 WtCom= 9.90D-01 WtEn= 1.04D-02
 Coeff-Com:  0.647D-02-0.319D-02 0.158D+00 0.273D+00 0.565D+00
 Coeff-En:   0.000D+00 0.000D+00 0.000D+00 0.000D+00 0.100D+01
 Coeff:      0.641D-02-0.316D-02 0.157D+00 0.270D+00 0.570D+00
 Gap=     0.137 Goal=   None    Shift=    0.000
 Gap=     0.059 Goal=   None    Shift=    0.000
 RMSDP=5.61D-05 MaxDP=9.04D-03 DE=-1.08D-02 OVMax= 2.90D-02

 Cycle   6  Pass 1  IDiag  1:
 RMSU=  4.49D-05    CP:  9.56D-01  1.96D+00  7.96D-01  6.79D-01  7.34D-01
 E= -1328.75406874739     Delta-E=       -0.000656943237 Rises=F Damp=F
 DIIS: error= 4.23D-04 at cycle   6 NSaved=   6.
 NSaved= 6 IEnMin= 6 EnMin= -1328.75406874739     IErMin= 6 ErrMin= 4.23D-04
 ErrMax= 4.23D-04  0.00D+00 EMaxC= 1.00D-01 BMatC= 3.72D-04 BMatP= 2.68D-03
 IDIUse=3 WtCom= 9.96D-01 WtEn= 4.23D-03
 Coeff-Com:  0.763D-02-0.116D-01 0.520D-01 0.915D-01 0.316D+00 0.544D+00
 Coeff-En:   0.000D+00 0.000D+00 0.000D+00 0.000D+00 0.000D+00 0.100D+01
 Coeff:      0.760D-02-0.115D-01 0.518D-01 0.911D-01 0.315D+00 0.546D+00
 Gap=     0.138 Goal=   None    Shift=    0.000
 Gap=     0.059 Goal=   None    Shift=    0.000
 RMSDP=2.06D-05 MaxDP=2.44D-03 DE=-6.57D-04 OVMax= 8.25D-03

 Cycle   7  Pass 1  IDiag  1:
 RMSU=  1.74D-05    CP:  9.56D-01  1.97D+00  7.98D-01  6.88D-01  8.27D-01
                    CP:  1.06D+00
 E= -1328.75418171106     Delta-E=       -0.000112963667 Rises=F Damp=F
 DIIS: error= 2.26D-04 at cycle   7 NSaved=   7.
 NSaved= 7 IEnMin= 7 EnMin= -1328.75418171106     IErMin= 7 ErrMin= 2.26D-04
 ErrMax= 2.26D-04  0.00D+00 EMaxC= 1.00D-01 BMatC= 6.52D-05 BMatP= 3.72D-04
 IDIUse=3 WtCom= 9.98D-01 WtEn= 2.26D-03
 Coeff-Com:  0.289D-02-0.546D-02-0.757D-02-0.233D-01 0.408D-01 0.235D+00
 Coeff-Com:  0.757D+00
 Coeff-En:   0.000D+00 0.000D+00 0.000D+00 0.000D+00 0.000D+00 0.000D+00
 Coeff-En:   0.100D+01
 Coeff:      0.288D-02-0.544D-02-0.755D-02-0.233D-01 0.407D-01 0.235D+00
 Coeff:      0.758D+00
 Gap=     0.138 Goal=   None    Shift=    0.000
 Gap=     0.060 Goal=   None    Shift=    0.000
 RMSDP=1.91D-05 MaxDP=2.08D-03 DE=-1.13D-04 OVMax= 1.42D-02

 Cycle   8  Pass 1  IDiag  1:
 RMSU=  1.03D-05    CP:  9.56D-01  1.97D+00  7.99D-01  7.01D-01  9.04D-01
                    CP:  1.35D+00  1.12D+00
 E= -1328.75423731768     Delta-E=       -0.000055606621 Rises=F Damp=F
 DIIS: error= 1.22D-04 at cycle   8 NSaved=   8.
 NSaved= 8 IEnMin= 8 EnMin= -1328.75423731768     IErMin= 8 ErrMin= 1.22D-04
 ErrMax= 1.22D-04  0.00D+00 EMaxC= 1.00D-01 BMatC= 3.38D-05 BMatP= 6.52D-05
 IDIUse=3 WtCom= 9.99D-01 WtEn= 1.22D-03
 Coeff-Com: -0.867D-03 0.122D-02-0.211D-01-0.504D-01-0.912D-01-0.149D+00
 Coeff-Com:  0.435D+00 0.876D+00
 Coeff-En:   0.000D+00 0.000D+00 0.000D+00 0.000D+00 0.000D+00 0.000D+00
 Coeff-En:   0.000D+00 0.100D+01
 Coeff:     -0.866D-03 0.121D-02-0.210D-01-0.503D-01-0.911D-01-0.149D+00
 Coeff:      0.435D+00 0.876D+00
 Gap=     0.138 Goal=   None    Shift=    0.000
 Gap=     0.061 Goal=   None    Shift=    0.000
 RMSDP=1.76D-05 MaxDP=1.99D-03 DE=-5.56D-05 OVMax= 1.29D-02

 Cycle   9  Pass 1  IDiag  1:
 RMSU=  5.15D-06    CP:  9.56D-01  1.97D+00  8.00D-01  7.12D-01  9.70D-01
                    CP:  1.61D+00  1.61D+00  1.32D+00
 E= -1328.75426924864     Delta-E=       -0.000031930959 Rises=F Damp=F
 DIIS: error= 6.83D-05 at cycle   9 NSaved=   9.
 NSaved= 9 IEnMin= 9 EnMin= -1328.75426924864     IErMin= 9 ErrMin= 6.83D-05
 ErrMax= 6.83D-05  0.00D+00 EMaxC= 1.00D-01 BMatC= 9.20D-06 BMatP= 3.38D-05
 IDIUse=1 WtCom= 1.00D+00 WtEn= 0.00D+00
 Coeff-Com: -0.865D-03 0.160D-02-0.959D-02-0.245D-01-0.622D-01-0.173D+00
 Coeff-Com:  0.701D-01 0.500D+00 0.699D+00
 Coeff:     -0.865D-03 0.160D-02-0.959D-02-0.245D-01-0.622D-01-0.173D+00
 Coeff:      0.701D-01 0.500D+00 0.699D+00
 Gap=     0.138 Goal=   None    Shift=    0.000
 Gap=     0.061 Goal=   None    Shift=    0.000
 RMSDP=9.11D-06 MaxDP=1.06D-03 DE=-3.19D-05 OVMax= 6.76D-03

 Cycle  10  Pass 1  IDiag  1:
 RMSU=  3.01D-06    CP:  9.56D-01  1.97D+00  8.00D-01  7.16D-01  1.00D+00
                    CP:  1.74D+00  1.82D+00  1.65D+00  1.07D+00
 E= -1328.75427796156     Delta-E=       -0.000008712925 Rises=F Damp=F
 DIIS: error= 3.74D-05 at cycle  10 NSaved=  10.
 NSaved=10 IEnMin=10 EnMin= -1328.75427796156     IErMin=10 ErrMin= 3.74D-05
 ErrMax= 3.74D-05  0.00D+00 EMaxC= 1.00D-01 BMatC= 2.60D-06 BMatP= 9.20D-06
 IDIUse=1 WtCom= 1.00D+00 WtEn= 0.00D+00
 Coeff-Com:  0.221D-05 0.195D-03 0.148D-02 0.148D-02-0.342D-02-0.511D-01
 Coeff-Com: -0.750D-01-0.156D-01 0.372D+00 0.770D+00
 Coeff:      0.221D-05 0.195D-03 0.148D-02 0.148D-02-0.342D-02-0.511D-01
 Coeff:     -0.750D-01-0.156D-01 0.372D+00 0.770D+00
 Gap=     0.138 Goal=   None    Shift=    0.000
 Gap=     0.061 Goal=   None    Shift=    0.000
 RMSDP=4.77D-06 MaxDP=5.39D-04 DE=-8.71D-06 OVMax= 3.16D-03

 Cycle  11  Pass 1  IDiag  1:
 RMSU=  1.63D-06    CP:  9.56D-01  1.97D+00  8.00D-01  7.18D-01  1.01D+00
                    CP:  1.81D+00  1.93D+00  1.82D+00  1.42D+00  1.19D+00
 E= -1328.75428049405     Delta-E=       -0.000002532491 Rises=F Damp=F
 DIIS: error= 2.47D-05 at cycle  11 NSaved=  11.
 NSaved=11 IEnMin=11 EnMin= -1328.75428049405     IErMin=11 ErrMin= 2.47D-05
 ErrMax= 2.47D-05  0.00D+00 EMaxC= 1.00D-01 BMatC= 8.23D-07 BMatP= 2.60D-06
 IDIUse=1 WtCom= 1.00D+00 WtEn= 0.00D+00
 Coeff-Com:  0.382D-03-0.535D-03 0.518D-02 0.109D-01 0.251D-01 0.386D-01
 Coeff-Com: -0.645D-01-0.215D+00-0.424D-01 0.443D+00 0.799D+00
 Coeff:      0.382D-03-0.535D-03 0.518D-02 0.109D-01 0.251D-01 0.386D-01
 Coeff:     -0.645D-01-0.215D+00-0.424D-01 0.443D+00 0.799D+00
 Gap=     0.138 Goal=   None    Shift=    0.000
 Gap=     0.061 Goal=   None    Shift=    0.000
 RMSDP=2.78D-06 MaxDP=4.00D-04 DE=-2.53D-06 OVMax= 1.78D-03

 Cycle  12  Pass 1  IDiag  1:
 RMSU=  8.79D-07    CP:  9.56D-01  1.97D+00  8.00D-01  7.20D-01  1.02D+00
                    CP:  1.83D+00  1.99D+00  1.93D+00  1.63D+00  1.61D+00
                    CP:  1.13D+00
 E= -1328.75428134324     Delta-E=       -0.000000849185 Rises=F Damp=F
 DIIS: error= 1.08D-05 at cycle  12 NSaved=  12.
 NSaved=12 IEnMin=12 EnMin= -1328.75428134324     IErMin=12 ErrMin= 1.08D-05
 ErrMax= 1.08D-05  0.00D+00 EMaxC= 1.00D-01 BMatC= 2.15D-07 BMatP= 8.23D-07
 IDIUse=1 WtCom= 1.00D+00 WtEn= 0.00D+00
 Coeff-Com:  0.149D-03-0.267D-03 0.165D-02 0.370D-02 0.112D-01 0.283D-01
 Coeff-Com: -0.579D-02-0.866D-01-0.109D+00-0.362D-01 0.392D+00 0.800D+00
 Coeff:      0.149D-03-0.267D-03 0.165D-02 0.370D-02 0.112D-01 0.283D-01
 Coeff:     -0.579D-02-0.866D-01-0.109D+00-0.362D-01 0.392D+00 0.800D+00
 Gap=     0.138 Goal=   None    Shift=    0.000
 Gap=     0.061 Goal=   None    Shift=    0.000
 RMSDP=1.32D-06 MaxDP=2.05D-04 DE=-8.49D-07 OVMax= 6.94D-04

 Cycle  13  Pass 1  IDiag  1:
 RMSU=  5.15D-07    CP:  9.56D-01  1.97D+00  8.00D-01  7.20D-01  1.02D+00
                    CP:  1.84D+00  2.01D+00  1.97D+00  1.73D+00  1.79D+00
                    CP:  1.43D+00  1.01D+00
 E= -1328.75428152532     Delta-E=       -0.000000182079 Rises=F Damp=F
 DIIS: error= 6.59D-06 at cycle  13 NSaved=  13.
 NSaved=13 IEnMin=13 EnMin= -1328.75428152532     IErMin=13 ErrMin= 6.59D-06
 ErrMax= 6.59D-06  0.00D+00 EMaxC= 1.00D-01 BMatC= 1.09D-07 BMatP= 2.15D-07
 IDIUse=1 WtCom= 1.00D+00 WtEn= 0.00D+00
 Coeff-Com:  0.147D-04-0.652D-04-0.138D-03-0.193D-03 0.182D-02 0.108D-01
 Coeff-Com:  0.128D-01-0.530D-02-0.674D-01-0.159D+00 0.702D-01 0.562D+00
 Coeff-Com:  0.574D+00
 Coeff:      0.147D-04-0.652D-04-0.138D-03-0.193D-03 0.182D-02 0.108D-01
 Coeff:      0.128D-01-0.530D-02-0.674D-01-0.159D+00 0.702D-01 0.562D+00
 Coeff:      0.574D+00
 Gap=     0.138 Goal=   None    Shift=    0.000
 Gap=     0.061 Goal=   None    Shift=    0.000
 RMSDP=6.17D-07 MaxDP=8.07D-05 DE=-1.82D-07 OVMax= 3.18D-04

 Cycle  14  Pass 1  IDiag  1:
 RMSU=  2.50D-07    CP:  9.56D-01  1.97D+00  8.00D-01  7.20D-01  1.02D+00
                    CP:  1.85D+00  2.02D+00  1.99D+00  1.77D+00  1.87D+00
                    CP:  1.56D+00  1.28D+00  8.43D-01
 E= -1328.75428158048     Delta-E=       -0.000000055160 Rises=F Damp=F
 DIIS: error= 1.93D-06 at cycle  14 NSaved=  14.
 NSaved=14 IEnMin=14 EnMin= -1328.75428158048     IErMin=14 ErrMin= 1.93D-06
 ErrMax= 1.93D-06  0.00D+00 EMaxC= 1.00D-01 BMatC= 1.02D-08 BMatP= 1.09D-07
 IDIUse=1 WtCom= 1.00D+00 WtEn= 0.00D+00
 Coeff-Com: -0.321D-04 0.453D-04-0.407D-03-0.936D-03-0.189D-02-0.244D-02
 Coeff-Com:  0.545D-02 0.178D-01 0.137D-02-0.541D-01-0.500D-01 0.168D-01
 Coeff-Com:  0.215D+00 0.854D+00
 Coeff:     -0.321D-04 0.453D-04-0.407D-03-0.936D-03-0.189D-02-0.244D-02
 Coeff:      0.545D-02 0.178D-01 0.137D-02-0.541D-01-0.500D-01 0.168D-01
 Coeff:      0.215D+00 0.854D+00
 Gap=     0.138 Goal=   None    Shift=    0.000
 Gap=     0.061 Goal=   None    Shift=    0.000
 RMSDP=2.63D-07 MaxDP=3.19D-05 DE=-5.52D-08 OVMax= 1.28D-04

 Cycle  15  Pass 1  IDiag  1:
 RMSU=  1.20D-07    CP:  9.56D-01  1.97D+00  8.00D-01  7.21D-01  1.02D+00
                    CP:  1.85D+00  2.02D+00  1.99D+00  1.78D+00  1.89D+00
                    CP:  1.61D+00  1.38D+00  1.07D+00  1.18D+00
 E= -1328.75428159005     Delta-E=       -0.000000009575 Rises=F Damp=F
 DIIS: error= 1.26D-06 at cycle  15 NSaved=  15.
 NSaved=15 IEnMin=15 EnMin= -1328.75428159005     IErMin=15 ErrMin= 1.26D-06
 ErrMax= 1.26D-06  0.00D+00 EMaxC= 1.00D-01 BMatC= 3.53D-09 BMatP= 1.02D-08
 IDIUse=1 WtCom= 1.00D+00 WtEn= 0.00D+00
 Coeff-Com: -0.176D-04 0.345D-04-0.200D-03-0.499D-03-0.143D-02-0.349D-02
 Coeff-Com:  0.612D-03 0.110D-01 0.150D-01 0.771D-03-0.386D-01-0.108D+00
 Coeff-Com: -0.921D-03 0.436D+00 0.690D+00
 Coeff:     -0.176D-04 0.345D-04-0.200D-03-0.499D-03-0.143D-02-0.349D-02
 Coeff:      0.612D-03 0.110D-01 0.150D-01 0.771D-03-0.386D-01-0.108D+00
 Coeff:     -0.921D-03 0.436D+00 0.690D+00
 Gap=     0.138 Goal=   None    Shift=    0.000
 Gap=     0.061 Goal=   None    Shift=    0.000
 RMSDP=1.27D-07 MaxDP=1.63D-05 DE=-9.58D-09 OVMax= 5.42D-05

 Cycle  16  Pass 1  IDiag  1:
 RMSU=  6.54D-08    CP:  9.56D-01  1.97D+00  8.00D-01  7.21D-01  1.02D+00
                    CP:  1.85D+00  2.02D+00  2.00D+00  1.79D+00  1.90D+00
                    CP:  1.62D+00  1.42D+00  1.16D+00  1.46D+00  1.01D+00
 E= -1328.75428159286     Delta-E=       -0.000000002803 Rises=F Damp=F
 DIIS: error= 8.97D-07 at cycle  16 NSaved=  16.
 NSaved=16 IEnMin=16 EnMin= -1328.75428159286     IErMin=16 ErrMin= 8.97D-07
 ErrMax= 8.97D-07  0.00D+00 EMaxC= 1.00D-01 BMatC= 1.22D-09 BMatP= 3.53D-09
 IDIUse=1 WtCom= 1.00D+00 WtEn= 0.00D+00
 Coeff-Com:  0.114D-04-0.120D-04 0.942D-04 0.189D-03 0.150D-03-0.614D-03
 Coeff-Com: -0.232D-02-0.298D-02 0.720D-02 0.232D-01 0.407D-02-0.660D-01
 Coeff-Com: -0.895D-01-0.156D+00 0.383D+00 0.900D+00
 Coeff:      0.114D-04-0.120D-04 0.942D-04 0.189D-03 0.150D-03-0.614D-03
 Coeff:     -0.232D-02-0.298D-02 0.720D-02 0.232D-01 0.407D-02-0.660D-01
 Coeff:     -0.895D-01-0.156D+00 0.383D+00 0.900D+00
 Gap=     0.138 Goal=   None    Shift=    0.000
 Gap=     0.061 Goal=   None    Shift=    0.000
 RMSDP=1.09D-07 MaxDP=1.40D-05 DE=-2.80D-09 OVMax= 5.06D-05

 Cycle  17  Pass 1  IDiag  1:
 RMSU=  3.23D-08    CP:  9.56D-01  1.97D+00  8.00D-01  7.21D-01  1.02D+00
                    CP:  1.85D+00  2.02D+00  2.00D+00  1.79D+00  1.90D+00
                    CP:  1.63D+00  1.46D+00  1.23D+00  1.66D+00  1.44D+00
                    CP:  1.18D+00
 E= -1328.75428159422     Delta-E=       -0.000000001361 Rises=F Damp=F
 DIIS: error= 4.61D-07 at cycle  17 NSaved=  17.
 NSaved=17 IEnMin=17 EnMin= -1328.75428159422     IErMin=17 ErrMin= 4.61D-07
 ErrMax= 4.61D-07  0.00D+00 EMaxC= 1.00D-01 BMatC= 2.56D-10 BMatP= 1.22D-09
 IDIUse=1 WtCom= 1.00D+00 WtEn= 0.00D+00
 Coeff-Com:  0.888D-05-0.118D-04 0.819D-04 0.177D-03 0.336D-03 0.382D-03
 Coeff-Com: -0.107D-02-0.326D-02 0.519D-03 0.101D-01 0.865D-02-0.121D-01
 Coeff-Com: -0.383D-01-0.152D+00 0.760D-01 0.427D+00 0.684D+00
 Coeff:      0.888D-05-0.118D-04 0.819D-04 0.177D-03 0.336D-03 0.382D-03
 Coeff:     -0.107D-02-0.326D-02 0.519D-03 0.101D-01 0.865D-02-0.121D-01
 Coeff:     -0.383D-01-0.152D+00 0.760D-01 0.427D+00 0.684D+00
 Gap=     0.138 Goal=   None    Shift=    0.000
 Gap=     0.061 Goal=   None    Shift=    0.000
 RMSDP=3.49D-08 MaxDP=5.90D-06 DE=-1.36D-09 OVMax= 1.76D-05

 Cycle  18  Pass 1  IDiag  1:
 RMSU=  1.91D-08    CP:  9.56D-01  1.97D+00  8.00D-01  7.21D-01  1.02D+00
                    CP:  1.85D+00  2.02D+00  2.00D+00  1.79D+00  1.90D+00
                    CP:  1.64D+00  1.46D+00  1.25D+00  1.72D+00  1.55D+00
                    CP:  1.40D+00  1.10D+00
 E= -1328.75428159439     Delta-E=       -0.000000000171 Rises=F Damp=F
 DIIS: error= 2.75D-07 at cycle  18 NSaved=  18.
 NSaved=18 IEnMin=18 EnMin= -1328.75428159439     IErMin=18 ErrMin= 2.75D-07
 ErrMax= 2.75D-07  0.00D+00 EMaxC= 1.00D-01 BMatC= 1.03D-10 BMatP= 2.56D-10
 IDIUse=1 WtCom= 1.00D+00 WtEn= 0.00D+00
 Coeff-Com: -0.327D-06-0.109D-05-0.301D-06 0.650D-05 0.102D-03 0.456D-03
 Coeff-Com:  0.472D-03-0.319D-03-0.312D-02-0.519D-02 0.246D-02 0.232D-01
 Coeff-Com:  0.237D-01-0.148D-01-0.140D+00-0.203D+00 0.417D+00 0.898D+00
 Coeff:     -0.327D-06-0.109D-05-0.301D-06 0.650D-05 0.102D-03 0.456D-03
 Coeff:      0.472D-03-0.319D-03-0.312D-02-0.519D-02 0.246D-02 0.232D-01
 Coeff:      0.237D-01-0.148D-01-0.140D+00-0.203D+00 0.417D+00 0.898D+00
 Gap=     0.138 Goal=   None    Shift=    0.000
 Gap=     0.061 Goal=   None    Shift=    0.000
 RMSDP=3.12D-08 MaxDP=5.25D-06 DE=-1.71D-10 OVMax= 1.25D-05

 Cycle  19  Pass 1  IDiag  1:
 RMSU=  1.03D-08    CP:  9.56D-01  1.97D+00  8.00D-01  7.21D-01  1.02D+00
                    CP:  1.85D+00  2.02D+00  2.00D+00  1.79D+00  1.90D+00
                    CP:  1.64D+00  1.47D+00  1.27D+00  1.77D+00  1.66D+00
                    CP:  1.60D+00  1.58D+00  1.15D+00
 E= -1328.75428159457     Delta-E=       -0.000000000177 Rises=F Damp=F
 DIIS: error= 8.39D-08 at cycle  19 NSaved=  19.
 NSaved=19 IEnMin=19 EnMin= -1328.75428159457     IErMin=19 ErrMin= 8.39D-08
 ErrMax= 8.39D-08  0.00D+00 EMaxC= 1.00D-01 BMatC= 2.34D-11 BMatP= 1.03D-10
 IDIUse=1 WtCom= 1.00D+00 WtEn= 0.00D+00
 Coeff-Com: -0.206D-05 0.198D-05-0.150D-04-0.291D-04-0.179D-05 0.183D-03
 Coeff-Com:  0.468D-03 0.477D-03-0.185D-02-0.466D-02-0.270D-03 0.146D-01
 Coeff-Com:  0.213D-01 0.229D-01-0.864D-01-0.190D+00 0.829D-01 0.433D+00
 Coeff-Com:  0.707D+00
 Coeff:     -0.206D-05 0.198D-05-0.150D-04-0.291D-04-0.179D-05 0.183D-03
 Coeff:      0.468D-03 0.477D-03-0.185D-02-0.466D-02-0.270D-03 0.146D-01
 Coeff:      0.213D-01 0.229D-01-0.864D-01-0.190D+00 0.829D-01 0.433D+00
 Coeff:      0.707D+00
 Gap=     0.138 Goal=   None    Shift=    0.000
 Gap=     0.061 Goal=   None    Shift=    0.000
 RMSDP=1.13D-08 MaxDP=1.93D-06 DE=-1.77D-10 OVMax= 4.99D-06

 Cycle  20  Pass 1  IDiag  1:
 RMSU=  5.18D-09    CP:  9.56D-01  1.97D+00  8.00D-01  7.21D-01  1.02D+00
                    CP:  1.85D+00  2.02D+00  2.00D+00  1.79D+00  1.90D+00
                    CP:  1.64D+00  1.47D+00  1.27D+00  1.77D+00  1.69D+00
                    CP:  1.65D+00  1.74D+00  1.43D+00  1.10D+00
 E= -1328.75428159462     Delta-E=       -0.000000000055 Rises=F Damp=F
 DIIS: error= 6.70D-08 at cycle  20 NSaved=  20.
 NSaved=20 IEnMin=20 EnMin= -1328.75428159462     IErMin=20 ErrMin= 6.70D-08
 ErrMax= 6.70D-08  0.00D+00 EMaxC= 1.00D-01 BMatC= 7.99D-12 BMatP= 2.34D-11
 IDIUse=1 WtCom= 1.00D+00 WtEn= 0.00D+00
 Coeff-Com: -0.146D-05 0.206D-05-0.978D-05-0.208D-04-0.411D-04-0.619D-04
 Coeff-Com:  0.103D-03 0.435D-03 0.487D-05-0.867D-03-0.120D-02-0.330D-03
 Coeff-Com:  0.460D-02 0.198D-01-0.222D-03-0.405D-01-0.103D+00-0.994D-01
 Coeff-Com:  0.422D+00 0.799D+00
 Coeff:     -0.146D-05 0.206D-05-0.978D-05-0.208D-04-0.411D-04-0.619D-04
 Coeff:      0.103D-03 0.435D-03 0.487D-05-0.867D-03-0.120D-02-0.330D-03
 Coeff:      0.460D-02 0.198D-01-0.222D-03-0.405D-01-0.103D+00-0.994D-01
 Coeff:      0.422D+00 0.799D+00
 Gap=     0.138 Goal=   None    Shift=    0.000
 Gap=     0.061 Goal=   None    Shift=    0.000
 RMSDP=7.72D-09 MaxDP=1.30D-06 DE=-5.46D-11 OVMax= 3.67D-06

 Cycle  21  Pass 1  IDiag  1:
 Restarting incremental Fock formation.
 E= -1328.75428159454     Delta-E=        0.000000000078 Rises=F Damp=F
 DIIS: error= 3.59D-08 at cycle  21 NSaved=  20.
 NSaved=20 IEnMin=19 EnMin= -1328.75428159462     IErMin=20 ErrMin= 3.59D-08
 ErrMax= 3.59D-08  0.00D+00 EMaxC= 1.00D-01 BMatC= 1.59D-12 BMatP= 7.99D-12
 IDIUse=1 WtCom= 1.00D+00 WtEn= 0.00D+00
 Coeff-Com: -0.374D-07-0.684D-06-0.215D-06-0.985D-05-0.465D-04-0.658D-04
 Coeff-Com:  0.383D-04 0.309D-03 0.597D-03-0.221D-03-0.275D-02-0.165D-02
 Coeff-Com:  0.296D-02 0.150D-01 0.191D-01-0.523D-01-0.131D+00 0.514D-01
 Coeff-Com:  0.362D+00 0.737D+00
 Coeff:     -0.374D-07-0.684D-06-0.215D-06-0.985D-05-0.465D-04-0.658D-04
 Coeff:      0.383D-04 0.309D-03 0.597D-03-0.221D-03-0.275D-02-0.165D-02
 Coeff:      0.296D-02 0.150D-01 0.191D-01-0.523D-01-0.131D+00 0.514D-01
 Coeff:      0.362D+00 0.737D+00
 Gap=     0.138 Goal=   None    Shift=    0.000
 Gap=     0.061 Goal=   None    Shift=    0.000
 RMSDP=2.84D-09 MaxDP=3.22D-07 DE= 7.82D-11 OVMax= 1.22D-06

 Error on total polarization charges =  0.04432
 SCF Done:  E(UB3LYP) =  -1328.75428159     A.U. after   21 cycles
            NFock= 21  Conv=0.28D-08     -V/T= 2.0092
 <Sx>= 0.0000 <Sy>= 0.0000 <Sz>= 0.5000 <S**2>= 0.7635 S= 0.5067
 <L.S>= 0.000000000000E+00
 KE= 1.316672645745D+03 PE=-9.427987771247D+03 EE= 3.595172938087D+03
 Annihilation of the first spin contaminant:
 S**2 before annihilation     0.7635,   after     0.7501
 Leave Link  502 at Thu Dec 20 19:02:21 2018, MaxMem=  1342177280 cpu:            5431.7 elap:             344.4
 (Enter /gpfs/apps/hpc/Apps/Restricted/Gaussian/Rev_A.03/g16/l801.exe)
 DoSCS=F DFT=T ScalE2(SS,OS)=  1.000000  1.000000
 Range of M.O.s used for correlation:     1   665
 NBasis=   665 NAE=   117 NBE=   116 NFC=     0 NFV=     0
 NROrb=    665 NOA=   117 NOB=   116 NVA=   548 NVB=   549

 **** Warning!!: The smallest beta delta epsilon is  0.60799551D-01

 Leave Link  801 at Thu Dec 20 19:02:21 2018, MaxMem=  1342177280 cpu:               0.8 elap:               0.1
 (Enter /gpfs/apps/hpc/Apps/Restricted/Gaussian/Rev_A.03/g16/l1101.exe)
 Using compressed storage, NAtomX=    69.
 Will process     70 centers per pass.
 R6Disp: Adding Grimme-D3(BJ) dispersion energy 1st derivatives to the gradient.
 Leave Link 1101 at Thu Dec 20 19:02:23 2018, MaxMem=  1342177280 cpu:              25.6 elap:               1.7
 (Enter /gpfs/apps/hpc/Apps/Restricted/Gaussian/Rev_A.03/g16/l1102.exe)
 Symmetrizing basis deriv contribution to polar:
 IMax=3 JMax=2 DiffMx= 0.00D+00
 Leave Link 1102 at Thu Dec 20 19:02:23 2018, MaxMem=  1342177280 cpu:               1.5 elap:               0.1
 (Enter /gpfs/apps/hpc/Apps/Restricted/Gaussian/Rev_A.03/g16/l1110.exe)
 Forming Gx(P) for the SCF density, NAtomX=    69.
 Integral derivatives from FoFJK, PRISM(SPDF).
 Do as many integral derivatives as possible in FoFJK.
 G2DrvN: MDV=    1342172176.
 G2DrvN: will do    35 centers at a time, making    2 passes.
 G2DrvN:  IPasSy=1 do centers    0 through   34.
 Calling FoFCou, ICntrl=  3107 FMM=T I1Cent=   0 AccDes= 0.00D+00.
 FoFJK:  IHMeth= 1 ICntrl=    3107 DoSepK=F KAlg= 0 I1Cent=           0 FoldK=F
 IRaf=         0 NMat=       1 IRICut=       1 DoRegI=T DoRafI=F ISym2E= 0 IDoP0=0 IntGTp=1.
 FoFCou: FMM=T IPFlag=           0 FMFlag=      100000 FMFlg1=        2001
         NFxFlg=           0 DoJE=F BraDBF=F KetDBF=F FulRan=T
         wScrn=  0.000000 ICntrl=      3107 IOpCl=  1 I1Cent=           0 NGrid=           0
         NMat0=    1 NMatS0=      1 NMatT0=    0 NMatD0=    1 NMtDS0=    0 NMtDT0=    0
 Symmetry not used in FoFCou.
 FMM levels:  10  Number of levels for PrismC:   9
 G2DrvN:  IPasSy=1 do centers   35 through   69.
 Calling FoFCou, ICntrl=  3107 FMM=T I1Cent=   0 AccDes= 0.00D+00.
