 Entering Gaussian System, Link 0=g16
 Initial command:
 /gpfs/apps/hpc/Apps/Restricted/Gaussian/g16/Rev_B.01-AVX/g16/l1.exe "/gpfs/scratch60/fas/hammes_schiffer/jg2487/c42n01/Gau-232263.inp" -scrdir="/gpfs/scratch60/fas/hammes_schiffer/jg2487/c42n01/"
 Entering Link 1 = /gpfs/apps/hpc/Apps/Restricted/Gaussian/g16/Rev_B.01-AVX/g16/l1.exe PID=    232264.
  
 Copyright (c) 1988-2017, Gaussian, Inc.  All Rights Reserved.
  
 This is part of the Gaussian(R) 16 program.  It is based on
 the Gaussian(R) 09 system (copyright 2009, Gaussian, Inc.),
 the Gaussian(R) 03 system (copyright 2003, Gaussian, Inc.),
 the Gaussian(R) 98 system (copyright 1998, Gaussian, Inc.),
 the Gaussian(R) 94 system (copyright 1995, Gaussian, Inc.),
 the Gaussian 92(TM) system (copyright 1992, Gaussian, Inc.),
 the Gaussian 90(TM) system (copyright 1990, Gaussian, Inc.),
 the Gaussian 88(TM) system (copyright 1988, Gaussian, Inc.),
 the Gaussian 86(TM) system (copyright 1986, Carnegie Mellon
 University), and the Gaussian 82(TM) system (copyright 1983,
 Carnegie Mellon University). Gaussian is a federally registered
 trademark of Gaussian, Inc.
  
 This software contains proprietary and confidential information,
 including trade secrets, belonging to Gaussian, Inc.
  
 This software is provided under written license and may be
 used, copied, transmitted, or stored only in accord with that
 written license.
  
 The following legend is applicable only to US Government
 contracts under FAR:
  
                    RESTRICTED RIGHTS LEGEND
  
 Use, reproduction and disclosure by the US Government is
 subject to restrictions as set forth in subparagraphs (a)
 and (c) of the Commercial Computer Software - Restricted
 Rights clause in FAR 52.227-19.
  
 Gaussian, Inc.
 340 Quinnipiac St., Bldg. 40, Wallingford CT 06492
  
  
 ---------------------------------------------------------------
 Warning -- This program may not be used in any manner that
 competes with the business of Gaussian, Inc. or will provide
 assistance to any competitor of Gaussian, Inc.  The licensee
 of this program is prohibited from giving any competitor of
 Gaussian, Inc. access to this program.  By using this program,
 the user acknowledges that Gaussian, Inc. is engaged in the
 business of creating and licensing software in the field of
 computational chemistry and represents and warrants to the
 licensee that it is not a competitor of Gaussian, Inc. and that
 it will not use this program in any manner prohibited above.
 ---------------------------------------------------------------
  

 Cite this work as:
 Gaussian 16, Revision B.01,
 M. J. Frisch, G. W. Trucks, H. B. Schlegel, G. E. Scuseria, 
 M. A. Robb, J. R. Cheeseman, G. Scalmani, V. Barone, 
 G. A. Petersson, H. Nakatsuji, X. Li, M. Caricato, A. V. Marenich, 
 J. Bloino, B. G. Janesko, R. Gomperts, B. Mennucci, H. P. Hratchian, 
 J. V. Ortiz, A. F. Izmaylov, J. L. Sonnenberg, D. Williams-Young, 
 F. Ding, F. Lipparini, F. Egidi, J. Goings, B. Peng, A. Petrone, 
 T. Henderson, D. Ranasinghe, V. G. Zakrzewski, J. Gao, N. Rega, 
 G. Zheng, W. Liang, M. Hada, M. Ehara, K. Toyota, R. Fukuda, 
 J. Hasegawa, M. Ishida, T. Nakajima, Y. Honda, O. Kitao, H. Nakai, 
 T. Vreven, K. Throssell, J. A. Montgomery, Jr., J. E. Peralta, 
 F. Ogliaro, M. J. Bearpark, J. J. Heyd, E. N. Brothers, K. N. Kudin, 
 V. N. Staroverov, T. A. Keith, R. Kobayashi, J. Normand, 
 K. Raghavachari, A. P. Rendell, J. C. Burant, S. S. Iyengar, 
 J. Tomasi, M. Cossi, J. M. Millam, M. Klene, C. Adamo, R. Cammi, 
 J. W. Ochterski, R. L. Martin, K. Morokuma, O. Farkas, 
 J. B. Foresman, and D. J. Fox, Gaussian, Inc., Wallingford CT, 2016.
 
 ******************************************
 Gaussian 16:  ES64L-G16RevB.01 20-Dec-2017
                12-Feb-2019 
 ******************************************
 %chk=amide-monoBIP-E0PT.chk
 %mem=10GB
 %nprocshared=16
 Will use up to   16 processors via shared memory.
 ----------------------------------------------------------------------
 #p opt=tight freq=internalmodes b3lyp/6-31g(d,p) scrf=(cpcm,solvent=di
 chloromethane,read) nosymm empiricaldispersion=gd3bj int=grid=ultrafin
 e
 ----------------------------------------------------------------------
 1/7=10,18=20,19=15,26=6,38=1,40=2/1,3;
 2/9=110,12=2,15=1,17=6,18=5,40=1/2;
 3/5=1,6=6,7=101,11=2,25=1,30=1,70=2103,71=1,72=9,74=-5,75=-5,124=41/1,2,3;
 4//1;
 5/5=2,38=5,53=9/2;
 6/7=2,8=2,9=2,10=2,28=1/1;
 7/30=1/1,2,3,16;
 1/7=10,18=20,19=15,26=6/3(2);
 2/9=110,15=1/2;
 99//99;
 2/9=110,15=1/2;
 3/5=1,6=6,7=101,11=2,25=1,30=1,70=2105,71=1,72=9,74=-5,75=-5,124=41/1,2,3;
 4/5=5,16=3,69=1/1;
 5/5=2,38=5,53=9/2;
 7/30=1/1,2,3,16;
 1/7=10,18=20,19=15,26=6/3(-5);
 2/9=110,15=1/2;
 6/7=2,8=2,9=2,10=2,19=2,28=1/1;
 99/9=1/99;
 Leave Link    1 at Tue Feb 12 10:37:36 2019, MaxMem=  1342177280 cpu:               6.7 elap:               0.5
 (Enter /gpfs/apps/hpc/Apps/Restricted/Gaussian/g16/Rev_B.01-AVX/g16/l101.exe)
 --------------------------------------
 Simple amide-monoBIP E0PT optimization
 --------------------------------------
 Symbolic Z-matrix:
 Charge =  1 Multiplicity = 2
 C                    -0.47101   2.71923   0.40447 
 C                    -1.8702    2.90642   0.29603 
 C                    -2.39372   4.19648   0.18486 
 C                    -1.4957    5.26415   0.18402 
 C                    -0.11161   5.06542   0.29746 
 C                     0.44069   3.78315   0.41828 
 C                    -1.5202    0.7616    0.41503 
 H                    -3.46102   4.35681   0.0948 
 H                    -1.87361   6.2754    0.09186 
 H                     0.53535   5.93454   0.27542 
 N                    -2.49306   1.66837   0.30922 
 C                    -3.06456  -1.18088   0.35901 
 C                    -1.74048  -0.67476   0.43792 
 C                    -0.65653  -1.56091   0.51212 
 C                    -0.84271  -2.93753   0.51288 
 C                    -2.16257  -3.4076    0.44161 
 C                    -3.28426  -2.57754   0.36718 
 H                     0.34941  -1.16035   0.56412 
 H                    -2.32436  -4.47419   0.44304 
 C                     0.37207  -3.87049   0.56238 
 C                    -4.70347  -3.16413   0.29439 
 O                    -4.12051  -0.34036   0.27416 
 H                    -3.77351   0.59767   0.26836 
 N                    -0.28704   1.35962   0.48076 
 H                     0.63122   0.93967   0.53703 
 C                     1.88892   3.47296   0.55145 
 C                     1.23621  -3.63026  -0.69244 
 H                     1.56053  -2.58853  -0.75196 
 H                     2.12813  -4.26345  -0.6676 
 H                     0.67615  -3.86409  -1.60185 
 C                     1.21289  -3.55727   1.8158 
 H                     0.63449  -3.72986   2.7274 
 H                     2.09822  -4.19915   1.84573 
 H                     1.55026  -2.51779   1.8181 
 C                    -0.03294  -5.35011   0.60228 
 H                    -0.63064  -5.58104   1.48827 
 H                    -0.60725  -5.63521  -0.28355 
 H                     0.86467  -5.97272   0.63263 
 C                    -5.38227  -2.73631  -1.02397 
 H                    -6.39428  -3.14972  -1.07086 
 H                    -5.44612  -1.65203  -1.10504 
 H                    -4.82103  -3.11555  -1.88264 
 C                    -5.53611  -2.67715   1.49979 
 H                    -5.63766  -1.59272   1.50069 
 H                    -6.53568  -3.12085   1.46519 
 H                    -5.06165  -2.9807    2.43713 
 C                    -4.68746  -4.70128   0.33063 
 H                    -4.13521  -5.1212   -0.51425 
 H                    -4.24105  -5.08132   1.25341 
 H                    -5.7149   -5.06903   0.27689 
 O                     2.2895    2.29655   0.52881 
 N                     2.74684   4.50929   0.68174 
 H                     2.43254   5.44643   0.87238 
 H                     3.71635   4.29327   0.8568 
 
 ITRead=  0  0  0  0  0  0  0  0  0  0  0  0  0  0  0  0  0  0  0  0
 ITRead=  0  0  0  0  0  0  0  0  0  0  0  0  0  0  0  0  0  0  0  0
 ITRead=  0  0  0  0  0  0  0  0  0  0  0  0  0  0
 MicOpt= -1 -1 -1 -1 -1 -1 -1 -1 -1 -1 -1 -1 -1 -1 -1 -1 -1 -1 -1 -1
 MicOpt= -1 -1 -1 -1 -1 -1 -1 -1 -1 -1 -1 -1 -1 -1 -1 -1 -1 -1 -1 -1
 MicOpt= -1 -1 -1 -1 -1 -1 -1 -1 -1 -1 -1 -1 -1 -1
 NAtoms=     54 NQM=       54 NQMF=       0 NMMI=      0 NMMIF=      0
                NMic=       0 NMicF=      0.
                    Isotopes and Nuclear Properties:
 (Nuclear quadrupole moments (NQMom) in fm**2, nuclear magnetic moments (NMagM)
  in nuclear magnetons)

  Atom         1           2           3           4           5           6           7           8           9          10
 IAtWgt=          12          12          12          12          12          12          12           1           1           1
 AtmWgt=  12.0000000  12.0000000  12.0000000  12.0000000  12.0000000  12.0000000  12.0000000   1.0078250   1.0078250   1.0078250
 NucSpn=           0           0           0           0           0           0           0           1           1           1
 AtZEff=  -0.0000000  -0.0000000  -0.0000000  -0.0000000  -0.0000000  -0.0000000  -0.0000000  -0.0000000  -0.0000000  -0.0000000
 NQMom=    0.0000000   0.0000000   0.0000000   0.0000000   0.0000000   0.0000000   0.0000000   0.0000000   0.0000000   0.0000000
 NMagM=    0.0000000   0.0000000   0.0000000   0.0000000   0.0000000   0.0000000   0.0000000   2.7928460   2.7928460   2.7928460
 AtZNuc=   6.0000000   6.0000000   6.0000000   6.0000000   6.0000000   6.0000000   6.0000000   1.0000000   1.0000000   1.0000000

  Atom        11          12          13          14          15          16          17          18          19          20
 IAtWgt=          14          12          12          12          12          12          12           1           1          12
 AtmWgt=  14.0030740  12.0000000  12.0000000  12.0000000  12.0000000  12.0000000  12.0000000   1.0078250   1.0078250  12.0000000
 NucSpn=           2           0           0           0           0           0           0           1           1           0
 AtZEff=  -0.0000000  -0.0000000  -0.0000000  -0.0000000  -0.0000000  -0.0000000  -0.0000000  -0.0000000  -0.0000000  -0.0000000
 NQMom=    2.0440000   0.0000000   0.0000000   0.0000000   0.0000000   0.0000000   0.0000000   0.0000000   0.0000000   0.0000000
 NMagM=    0.4037610   0.0000000   0.0000000   0.0000000   0.0000000   0.0000000   0.0000000   2.7928460   2.7928460   0.0000000
 AtZNuc=   7.0000000   6.0000000   6.0000000   6.0000000   6.0000000   6.0000000   6.0000000   1.0000000   1.0000000   6.0000000

  Atom        21          22          23          24          25          26          27          28          29          30
 IAtWgt=          12          16           1          14           1          12          12           1           1           1
 AtmWgt=  12.0000000  15.9949146   1.0078250  14.0030740   1.0078250  12.0000000  12.0000000   1.0078250   1.0078250   1.0078250
 NucSpn=           0           0           1           2           1           0           0           1           1           1
 AtZEff=  -0.0000000  -0.0000000  -0.0000000  -0.0000000  -0.0000000  -0.0000000  -0.0000000  -0.0000000  -0.0000000  -0.0000000
 NQMom=    0.0000000   0.0000000   0.0000000   2.0440000   0.0000000   0.0000000   0.0000000   0.0000000   0.0000000   0.0000000
 NMagM=    0.0000000   0.0000000   2.7928460   0.4037610   2.7928460   0.0000000   0.0000000   2.7928460   2.7928460   2.7928460
 AtZNuc=   6.0000000   8.0000000   1.0000000   7.0000000   1.0000000   6.0000000   6.0000000   1.0000000   1.0000000   1.0000000

  Atom        31          32          33          34          35          36          37          38          39          40
 IAtWgt=          12           1           1           1          12           1           1           1          12           1
 AtmWgt=  12.0000000   1.0078250   1.0078250   1.0078250  12.0000000   1.0078250   1.0078250   1.0078250  12.0000000   1.0078250
 NucSpn=           0           1           1           1           0           1           1           1           0           1
 AtZEff=  -0.0000000  -0.0000000  -0.0000000  -0.0000000  -0.0000000  -0.0000000  -0.0000000  -0.0000000  -0.0000000  -0.0000000
 NQMom=    0.0000000   0.0000000   0.0000000   0.0000000   0.0000000   0.0000000   0.0000000   0.0000000   0.0000000   0.0000000
 NMagM=    0.0000000   2.7928460   2.7928460   2.7928460   0.0000000   2.7928460   2.7928460   2.7928460   0.0000000   2.7928460
 AtZNuc=   6.0000000   1.0000000   1.0000000   1.0000000   6.0000000   1.0000000   1.0000000   1.0000000   6.0000000   1.0000000

  Atom        41          42          43          44          45          46          47          48          49          50
 IAtWgt=           1           1          12           1           1           1          12           1           1           1
 AtmWgt=   1.0078250   1.0078250  12.0000000   1.0078250   1.0078250   1.0078250  12.0000000   1.0078250   1.0078250   1.0078250
 NucSpn=           1           1           0           1           1           1           0           1           1           1
 AtZEff=  -0.0000000  -0.0000000  -0.0000000  -0.0000000  -0.0000000  -0.0000000  -0.0000000  -0.0000000  -0.0000000  -0.0000000
 NQMom=    0.0000000   0.0000000   0.0000000   0.0000000   0.0000000   0.0000000   0.0000000   0.0000000   0.0000000   0.0000000
 NMagM=    2.7928460   2.7928460   0.0000000   2.7928460   2.7928460   2.7928460   0.0000000   2.7928460   2.7928460   2.7928460
 AtZNuc=   1.0000000   1.0000000   6.0000000   1.0000000   1.0000000   1.0000000   6.0000000   1.0000000   1.0000000   1.0000000

  Atom        51          52          53          54
 IAtWgt=          16          14           1           1
 AtmWgt=  15.9949146  14.0030740   1.0078250   1.0078250
 NucSpn=           0           2           1           1
 AtZEff=  -0.0000000  -0.0000000  -0.0000000  -0.0000000
 NQMom=    0.0000000   2.0440000   0.0000000   0.0000000
 NMagM=    0.0000000   0.4037610   2.7928460   2.7928460
 AtZNuc=   8.0000000   7.0000000   1.0000000   1.0000000
 Leave Link  101 at Tue Feb 12 10:37:36 2019, MaxMem=  1342177280 cpu:               4.9 elap:               0.4
 (Enter /gpfs/apps/hpc/Apps/Restricted/Gaussian/g16/Rev_B.01-AVX/g16/l103.exe)

 GradGradGradGradGradGradGradGradGradGradGradGradGradGradGradGradGradGrad
 Berny optimization.
 Initialization pass.
                           ----------------------------
                           !    Initial Parameters    !
                           ! (Angstroms and Degrees)  !
 --------------------------                            --------------------------
 ! Name  Definition              Value          Derivative Info.                !
 --------------------------------------------------------------------------------
 ! R1    R(1,2)                  1.4158         estimate D2E/DX2                !
 ! R2    R(1,6)                  1.4012         estimate D2E/DX2                !
 ! R3    R(1,24)                 1.3741         estimate D2E/DX2                !
 ! R4    R(2,3)                  1.3967         estimate D2E/DX2                !
 ! R5    R(2,11)                 1.386          estimate D2E/DX2                !
 ! R6    R(3,4)                  1.3951         estimate D2E/DX2                !
 ! R7    R(3,8)                  1.083          estimate D2E/DX2                !
 ! R8    R(4,5)                  1.4029         estimate D2E/DX2                !
 ! R9    R(4,9)                  1.0835         estimate D2E/DX2                !
 ! R10   R(5,6)                  1.4014         estimate D2E/DX2                !
 ! R11   R(5,10)                 1.0837         estimate D2E/DX2                !
 ! R12   R(6,26)                 1.4871         estimate D2E/DX2                !
 ! R13   R(7,11)                 1.3341         estimate D2E/DX2                !
 ! R14   R(7,13)                 1.4533         estimate D2E/DX2                !
 ! R15   R(7,24)                 1.3721         estimate D2E/DX2                !
 ! R16   R(12,13)                1.4197         estimate D2E/DX2                !
 ! R17   R(12,17)                1.4139         estimate D2E/DX2                !
 ! R18   R(12,22)                1.3523         estimate D2E/DX2                !
 ! R19   R(13,14)                1.402          estimate D2E/DX2                !
 ! R20   R(14,15)                1.3892         estimate D2E/DX2                !
 ! R21   R(14,18)                1.084          estimate D2E/DX2                !
 ! R22   R(15,16)                1.4029         estimate D2E/DX2                !
 ! R23   R(15,20)                1.5325         estimate D2E/DX2                !
 ! R24   R(16,17)                1.3974         estimate D2E/DX2                !
 ! R25   R(16,19)                1.0788         estimate D2E/DX2                !
 ! R26   R(17,21)                1.5374         estimate D2E/DX2                !
 ! R27   R(20,27)                1.5424         estimate D2E/DX2                !
 ! R28   R(20,31)                1.5415         estimate D2E/DX2                !
 ! R29   R(20,35)                1.5346         estimate D2E/DX2                !
 ! R30   R(21,39)                1.5433         estimate D2E/DX2                !
 ! R31   R(21,43)                1.5438         estimate D2E/DX2                !
 ! R32   R(21,47)                1.5377         estimate D2E/DX2                !
 ! R33   R(22,23)                1.0002         estimate D2E/DX2                !
 ! R34   R(24,25)                1.0113         estimate D2E/DX2                !
 ! R35   R(26,51)                1.2429         estimate D2E/DX2                !
 ! R36   R(26,52)                1.3517         estimate D2E/DX2                !
 ! R37   R(27,28)                1.0927         estimate D2E/DX2                !
 ! R38   R(27,29)                1.0941         estimate D2E/DX2                !
 ! R39   R(27,30)                1.0933         estimate D2E/DX2                !
 ! R40   R(31,32)                1.0933         estimate D2E/DX2                !
 ! R41   R(31,33)                1.0939         estimate D2E/DX2                !
 ! R42   R(31,34)                1.0929         estimate D2E/DX2                !
 ! R43   R(35,36)                1.0934         estimate D2E/DX2                !
 ! R44   R(35,37)                1.0935         estimate D2E/DX2                !
 ! R45   R(35,38)                1.0928         estimate D2E/DX2                !
 ! R46   R(39,40)                1.0942         estimate D2E/DX2                !
 ! R47   R(39,41)                1.0892         estimate D2E/DX2                !
 ! R48   R(39,42)                1.0937         estimate D2E/DX2                !
 ! R49   R(43,44)                1.0892         estimate D2E/DX2                !
 ! R50   R(43,45)                1.0942         estimate D2E/DX2                !
 ! R51   R(43,46)                1.0936         estimate D2E/DX2                !
 ! R52   R(47,48)                1.0932         estimate D2E/DX2                !
 ! R53   R(47,49)                1.0933         estimate D2E/DX2                !
 ! R54   R(47,50)                1.0926         estimate D2E/DX2                !
 ! R55   R(52,53)                1.0067         estimate D2E/DX2                !
 ! R56   R(52,54)                1.0086         estimate D2E/DX2                !
 ! A1    A(2,1,6)              122.9149         estimate D2E/DX2                !
 ! A2    A(2,1,24)             105.5085         estimate D2E/DX2                !
 ! A3    A(6,1,24)             131.5765         estimate D2E/DX2                !
 ! A4    A(1,2,3)              119.9107         estimate D2E/DX2                !
 ! A5    A(1,2,11)             108.9837         estimate D2E/DX2                !
 ! A6    A(3,2,11)             131.1016         estimate D2E/DX2                !
 ! A7    A(2,3,4)              117.7521         estimate D2E/DX2                !
 ! A8    A(2,3,8)              120.8469         estimate D2E/DX2                !
 ! A9    A(4,3,8)              121.3993         estimate D2E/DX2                !
 ! A10   A(3,4,5)              121.7762         estimate D2E/DX2                !
 ! A11   A(3,4,9)              119.3281         estimate D2E/DX2                !
 ! A12   A(5,4,9)              118.8957         estimate D2E/DX2                !
 ! A13   A(4,5,6)              121.6974         estimate D2E/DX2                !
 ! A14   A(4,5,10)             118.2772         estimate D2E/DX2                !
 ! A15   A(6,5,10)             120.0197         estimate D2E/DX2                !
 ! A16   A(1,6,5)              115.9429         estimate D2E/DX2                !
 ! A17   A(1,6,26)             118.436          estimate D2E/DX2                !
 ! A18   A(5,6,26)             125.6205         estimate D2E/DX2                !
 ! A19   A(11,7,13)            124.2264         estimate D2E/DX2                !
 ! A20   A(11,7,24)            111.2813         estimate D2E/DX2                !
 ! A21   A(13,7,24)            124.4867         estimate D2E/DX2                !
 ! A22   A(2,11,7)             106.271          estimate D2E/DX2                !
 ! A23   A(13,12,17)           119.7865         estimate D2E/DX2                !
 ! A24   A(13,12,22)           120.6749         estimate D2E/DX2                !
 ! A25   A(17,12,22)           119.5386         estimate D2E/DX2                !
 ! A26   A(7,13,12)            119.5258         estimate D2E/DX2                !
 ! A27   A(7,13,14)            120.5519         estimate D2E/DX2                !
 ! A28   A(12,13,14)           119.9117         estimate D2E/DX2                !
 ! A29   A(13,14,15)           121.5171         estimate D2E/DX2                !
 ! A30   A(13,14,18)           119.1062         estimate D2E/DX2                !
 ! A31   A(15,14,18)           119.3757         estimate D2E/DX2                !
 ! A32   A(14,15,16)           117.2657         estimate D2E/DX2                !
 ! A33   A(14,15,20)           119.8061         estimate D2E/DX2                !
 ! A34   A(16,15,20)           122.9171         estimate D2E/DX2                !
 ! A35   A(15,16,17)           123.9773         estimate D2E/DX2                !
 ! A36   A(15,16,19)           118.1845         estimate D2E/DX2                !
 ! A37   A(17,16,19)           117.8382         estimate D2E/DX2                !
 ! A38   A(12,17,16)           117.5389         estimate D2E/DX2                !
 ! A39   A(12,17,21)           121.3385         estimate D2E/DX2                !
 ! A40   A(16,17,21)           121.1225         estimate D2E/DX2                !
 ! A41   A(15,20,27)           108.8452         estimate D2E/DX2                !
 ! A42   A(15,20,31)           109.569          estimate D2E/DX2                !
 ! A43   A(15,20,35)           112.248          estimate D2E/DX2                !
 ! A44   A(27,20,31)           108.9212         estimate D2E/DX2                !
 ! A45   A(27,20,35)           108.6141         estimate D2E/DX2                !
 ! A46   A(31,20,35)           108.5864         estimate D2E/DX2                !
 ! A47   A(17,21,39)           109.9191         estimate D2E/DX2                !
 ! A48   A(17,21,43)           109.9106         estimate D2E/DX2                !
 ! A49   A(17,21,47)           111.7591         estimate D2E/DX2                !
 ! A50   A(39,21,43)           110.0176         estimate D2E/DX2                !
 ! A51   A(39,21,47)           107.5674         estimate D2E/DX2                !
 ! A52   A(43,21,47)           107.6103         estimate D2E/DX2                !
 ! A53   A(12,22,23)           108.203          estimate D2E/DX2                !
 ! A54   A(1,24,7)             107.9537         estimate D2E/DX2                !
 ! A55   A(1,24,25)            122.38           estimate D2E/DX2                !
 ! A56   A(7,24,25)            129.6236         estimate D2E/DX2                !
 ! A57   A(6,26,51)            120.6416         estimate D2E/DX2                !
 ! A58   A(6,26,52)            117.8296         estimate D2E/DX2                !
 ! A59   A(51,26,52)           121.5248         estimate D2E/DX2                !
 ! A60   A(20,27,28)           111.0447         estimate D2E/DX2                !
 ! A61   A(20,27,29)           110.3722         estimate D2E/DX2                !
 ! A62   A(20,27,30)           110.8786         estimate D2E/DX2                !
 ! A63   A(28,27,29)           108.1211         estimate D2E/DX2                !
 ! A64   A(28,27,30)           108.0973         estimate D2E/DX2                !
 ! A65   A(29,27,30)           108.2219         estimate D2E/DX2                !
 ! A66   A(20,31,32)           110.9366         estimate D2E/DX2                !
 ! A67   A(20,31,33)           110.1493         estimate D2E/DX2                !
 ! A68   A(20,31,34)           111.3073         estimate D2E/DX2                !
 ! A69   A(32,31,33)           108.2222         estimate D2E/DX2                !
 ! A70   A(32,31,34)           108.1622         estimate D2E/DX2                !
 ! A71   A(33,31,34)           107.9512         estimate D2E/DX2                !
 ! A72   A(20,35,36)           111.6525         estimate D2E/DX2                !
 ! A73   A(20,35,37)           111.6489         estimate D2E/DX2                !
 ! A74   A(20,35,38)           109.4672         estimate D2E/DX2                !
 ! A75   A(36,35,37)           108.3157         estimate D2E/DX2                !
 ! A76   A(36,35,38)           107.8281         estimate D2E/DX2                !
 ! A77   A(37,35,38)           107.7782         estimate D2E/DX2                !
 ! A78   A(21,39,40)           109.795          estimate D2E/DX2                !
 ! A79   A(21,39,41)           111.4275         estimate D2E/DX2                !
 ! A80   A(21,39,42)           110.4164         estimate D2E/DX2                !
 ! A81   A(40,39,41)           108.5856         estimate D2E/DX2                !
 ! A82   A(40,39,42)           108.0574         estimate D2E/DX2                !
 ! A83   A(41,39,42)           108.4722         estimate D2E/DX2                !
 ! A84   A(21,43,44)           111.4071         estimate D2E/DX2                !
 ! A85   A(21,43,45)           109.883          estimate D2E/DX2                !
 ! A86   A(21,43,46)           110.3464         estimate D2E/DX2                !
 ! A87   A(44,43,45)           108.5784         estimate D2E/DX2                !
 ! A88   A(44,43,46)           108.4273         estimate D2E/DX2                !
 ! A89   A(45,43,46)           108.1136         estimate D2E/DX2                !
 ! A90   A(21,47,48)           111.7792         estimate D2E/DX2                !
 ! A91   A(21,47,49)           111.817          estimate D2E/DX2                !
 ! A92   A(21,47,50)           108.9975         estimate D2E/DX2                !
 ! A93   A(48,47,49)           108.2112         estimate D2E/DX2                !
 ! A94   A(48,47,50)           107.9227         estimate D2E/DX2                !
 ! A95   A(49,47,50)           107.9683         estimate D2E/DX2                !
 ! A96   A(26,52,53)           122.2661         estimate D2E/DX2                !
 ! A97   A(26,52,54)           117.5571         estimate D2E/DX2                !
 ! A98   A(53,52,54)           117.8162         estimate D2E/DX2                !
 ! D1    D(6,1,2,3)              0.5711         estimate D2E/DX2                !
 ! D2    D(6,1,2,11)           179.9184         estimate D2E/DX2                !
 ! D3    D(24,1,2,3)          -179.3442         estimate D2E/DX2                !
 ! D4    D(24,1,2,11)            0.0031         estimate D2E/DX2                !
 ! D5    D(2,1,6,5)             -0.91           estimate D2E/DX2                !
 ! D6    D(2,1,6,26)           179.3299         estimate D2E/DX2                !
 ! D7    D(24,1,6,5)           178.981          estimate D2E/DX2                !
 ! D8    D(24,1,6,26)           -0.7792         estimate D2E/DX2                !
 ! D9    D(2,1,24,7)             0.2451         estimate D2E/DX2                !
 ! D10   D(2,1,24,25)          178.0811         estimate D2E/DX2                !
 ! D11   D(6,1,24,7)          -179.6599         estimate D2E/DX2                !
 ! D12   D(6,1,24,25)           -1.8239         estimate D2E/DX2                !
 ! D13   D(1,2,3,4)              0.0788         estimate D2E/DX2                !
 ! D14   D(1,2,3,8)            179.6118         estimate D2E/DX2                !
 ! D15   D(11,2,3,4)          -179.1022         estimate D2E/DX2                !
 ! D16   D(11,2,3,8)             0.4308         estimate D2E/DX2                !
 ! D17   D(1,2,11,7)            -0.2548         estimate D2E/DX2                !
 ! D18   D(3,2,11,7)           178.9944         estimate D2E/DX2                !
 ! D19   D(2,3,4,5)             -0.3376         estimate D2E/DX2                !
 ! D20   D(2,3,4,9)            179.5625         estimate D2E/DX2                !
 ! D21   D(8,3,4,5)           -179.8679         estimate D2E/DX2                !
 ! D22   D(8,3,4,9)              0.0323         estimate D2E/DX2                !
 ! D23   D(3,4,5,6)             -0.0341         estimate D2E/DX2                !
 ! D24   D(3,4,5,10)           179.0903         estimate D2E/DX2                !
 ! D25   D(9,4,5,6)           -179.9347         estimate D2E/DX2                !
 ! D26   D(9,4,5,10)            -0.8103         estimate D2E/DX2                !
 ! D27   D(4,5,6,1)              0.6393         estimate D2E/DX2                !
 ! D28   D(4,5,6,26)          -179.6201         estimate D2E/DX2                !
 ! D29   D(10,5,6,1)          -178.4701         estimate D2E/DX2                !
 ! D30   D(10,5,6,26)            1.2705         estimate D2E/DX2                !
 ! D31   D(1,6,26,51)            6.4195         estimate D2E/DX2                !
 ! D32   D(1,6,26,52)         -174.3019         estimate D2E/DX2                !
 ! D33   D(5,6,26,51)         -173.3153         estimate D2E/DX2                !
 ! D34   D(5,6,26,52)            5.9634         estimate D2E/DX2                !
 ! D35   D(13,7,11,2)         -178.7536         estimate D2E/DX2                !
 ! D36   D(24,7,11,2)            0.4187         estimate D2E/DX2                !
 ! D37   D(11,7,13,12)          -0.7135         estimate D2E/DX2                !
 ! D38   D(11,7,13,14)         178.1016         estimate D2E/DX2                !
 ! D39   D(24,7,13,12)        -179.7778         estimate D2E/DX2                !
 ! D40   D(24,7,13,14)          -0.9627         estimate D2E/DX2                !
 ! D41   D(11,7,24,1)           -0.427          estimate D2E/DX2                !
 ! D42   D(11,7,24,25)        -178.0543         estimate D2E/DX2                !
 ! D43   D(13,7,24,1)          178.7428         estimate D2E/DX2                !
 ! D44   D(13,7,24,25)           1.1155         estimate D2E/DX2                !
 ! D45   D(17,12,13,7)         179.3623         estimate D2E/DX2                !
 ! D46   D(17,12,13,14)          0.5396         estimate D2E/DX2                !
 ! D47   D(22,12,13,7)          -0.5512         estimate D2E/DX2                !
 ! D48   D(22,12,13,14)       -179.374          estimate D2E/DX2                !
 ! D49   D(13,12,17,16)         -0.5911         estimate D2E/DX2                !
 ! D50   D(13,12,17,21)        179.5177         estimate D2E/DX2                !
 ! D51   D(22,12,17,16)        179.3234         estimate D2E/DX2                !
 ! D52   D(22,12,17,21)         -0.5678         estimate D2E/DX2                !
 ! D53   D(13,12,22,23)          0.7394         estimate D2E/DX2                !
 ! D54   D(17,12,22,23)       -179.1744         estimate D2E/DX2                !
 ! D55   D(7,13,14,15)        -178.9178         estimate D2E/DX2                !
 ! D56   D(7,13,14,18)           0.7166         estimate D2E/DX2                !
 ! D57   D(12,13,14,15)         -0.1073         estimate D2E/DX2                !
 ! D58   D(12,13,14,18)        179.5271         estimate D2E/DX2                !
 ! D59   D(13,14,15,16)         -0.2474         estimate D2E/DX2                !
 ! D60   D(13,14,15,20)        178.5751         estimate D2E/DX2                !
 ! D61   D(18,14,15,16)       -179.8808         estimate D2E/DX2                !
 ! D62   D(18,14,15,20)         -1.0583         estimate D2E/DX2                !
 ! D63   D(14,15,16,17)          0.1834         estimate D2E/DX2                !
 ! D64   D(14,15,16,19)       -179.8893         estimate D2E/DX2                !
 ! D65   D(20,15,16,17)       -178.5995         estimate D2E/DX2                !
 ! D66   D(20,15,16,19)          1.3278         estimate D2E/DX2                !
 ! D67   D(14,15,20,27)        -61.6115         estimate D2E/DX2                !
 ! D68   D(14,15,20,31)         57.3988         estimate D2E/DX2                !
 ! D69   D(14,15,20,35)        178.1223         estimate D2E/DX2                !
 ! D70   D(16,15,20,27)        117.1417         estimate D2E/DX2                !
 ! D71   D(16,15,20,31)       -123.8481         estimate D2E/DX2                !
 ! D72   D(16,15,20,35)         -3.1246         estimate D2E/DX2                !
 ! D73   D(15,16,17,12)          0.2359         estimate D2E/DX2                !
 ! D74   D(15,16,17,21)       -179.8727         estimate D2E/DX2                !
 ! D75   D(19,16,17,12)       -179.6916         estimate D2E/DX2                !
 ! D76   D(19,16,17,21)          0.1998         estimate D2E/DX2                !
 ! D77   D(12,17,21,39)         61.1376         estimate D2E/DX2                !
 ! D78   D(12,17,21,43)        -60.0934         estimate D2E/DX2                !
 ! D79   D(12,17,21,47)       -179.502          estimate D2E/DX2                !
 ! D80   D(16,17,21,39)       -118.7496         estimate D2E/DX2                !
 ! D81   D(16,17,21,43)        120.0193         estimate D2E/DX2                !
 ! D82   D(16,17,21,47)          0.6108         estimate D2E/DX2                !
 ! D83   D(15,20,27,28)         58.396          estimate D2E/DX2                !
 ! D84   D(15,20,27,29)        178.2881         estimate D2E/DX2                !
 ! D85   D(15,20,27,30)        -61.8014         estimate D2E/DX2                !
 ! D86   D(31,20,27,28)        -61.0186         estimate D2E/DX2                !
 ! D87   D(31,20,27,29)         58.8735         estimate D2E/DX2                !
 ! D88   D(31,20,27,30)        178.784          estimate D2E/DX2                !
 ! D89   D(35,20,27,28)       -179.1175         estimate D2E/DX2                !
 ! D90   D(35,20,27,29)        -59.2254         estimate D2E/DX2                !
 ! D91   D(35,20,27,30)         60.6851         estimate D2E/DX2                !
 ! D92   D(15,20,31,32)         61.7892         estimate D2E/DX2                !
 ! D93   D(15,20,31,33)       -178.4078         estimate D2E/DX2                !
 ! D94   D(15,20,31,34)        -58.7052         estimate D2E/DX2                !
 ! D95   D(27,20,31,32)       -179.2475         estimate D2E/DX2                !
 ! D96   D(27,20,31,33)        -59.4445         estimate D2E/DX2                !
 ! D97   D(27,20,31,34)         60.2581         estimate D2E/DX2                !
 ! D98   D(35,20,31,32)        -61.1311         estimate D2E/DX2                !
 ! D99   D(35,20,31,33)         58.6718         estimate D2E/DX2                !
 ! D100  D(35,20,31,34)        178.3744         estimate D2E/DX2                !
 ! D101  D(15,20,35,36)        -60.9082         estimate D2E/DX2                !
 ! D102  D(15,20,35,37)         60.5139         estimate D2E/DX2                !
 ! D103  D(15,20,35,38)        179.7706         estimate D2E/DX2                !
 ! D104  D(27,20,35,36)        178.6916         estimate D2E/DX2                !
 ! D105  D(27,20,35,37)        -59.8863         estimate D2E/DX2                !
 ! D106  D(27,20,35,38)         59.3704         estimate D2E/DX2                !
 ! D107  D(31,20,35,36)         60.3807         estimate D2E/DX2                !
 ! D108  D(31,20,35,37)       -178.1971         estimate D2E/DX2                !
 ! D109  D(31,20,35,38)        -58.9405         estimate D2E/DX2                !
 ! D110  D(17,21,39,40)       -179.6526         estimate D2E/DX2                !
 ! D111  D(17,21,39,41)        -59.3118         estimate D2E/DX2                !
 ! D112  D(17,21,39,42)         61.303          estimate D2E/DX2                !
 ! D113  D(43,21,39,40)        -58.4857         estimate D2E/DX2                !
 ! D114  D(43,21,39,41)         61.8551         estimate D2E/DX2                !
 ! D115  D(43,21,39,42)       -177.5301         estimate D2E/DX2                !
 ! D116  D(47,21,39,40)         58.4562         estimate D2E/DX2                !
 ! D117  D(47,21,39,41)        178.797          estimate D2E/DX2                !
 ! D118  D(47,21,39,42)        -60.5882         estimate D2E/DX2                !
 ! D119  D(17,21,43,44)         61.464          estimate D2E/DX2                !
 ! D120  D(17,21,43,45)       -178.1589         estimate D2E/DX2                !
 ! D121  D(17,21,43,46)        -59.0334         estimate D2E/DX2                !
 ! D122  D(39,21,43,44)        -59.708          estimate D2E/DX2                !
 ! D123  D(39,21,43,45)         60.6691         estimate D2E/DX2                !
 ! D124  D(39,21,43,46)        179.7946         estimate D2E/DX2                !
 ! D125  D(47,21,43,44)       -176.6231         estimate D2E/DX2                !
 ! D126  D(47,21,43,45)        -56.246          estimate D2E/DX2                !
 ! D127  D(47,21,43,46)         62.8795         estimate D2E/DX2                !
 ! D128  D(17,21,47,48)        -60.8029         estimate D2E/DX2                !
 ! D129  D(17,21,47,49)         60.6941         estimate D2E/DX2                !
 ! D130  D(17,21,47,50)        179.9856         estimate D2E/DX2                !
 ! D131  D(39,21,47,48)         59.9369         estimate D2E/DX2                !
 ! D132  D(39,21,47,49)       -178.566          estimate D2E/DX2                !
 ! D133  D(39,21,47,50)        -59.2745         estimate D2E/DX2                !
 ! D134  D(43,21,47,48)        178.4397         estimate D2E/DX2                !
 ! D135  D(43,21,47,49)        -60.0633         estimate D2E/DX2                !
 ! D136  D(43,21,47,50)         59.2282         estimate D2E/DX2                !
 ! D137  D(6,26,52,53)          12.3338         estimate D2E/DX2                !
 ! D138  D(6,26,52,54)         174.4969         estimate D2E/DX2                !
 ! D139  D(51,26,52,53)       -168.3943         estimate D2E/DX2                !
 ! D140  D(51,26,52,54)         -6.2312         estimate D2E/DX2                !
 --------------------------------------------------------------------------------
 Trust Radius=3.00D-01 FncErr=5.00D-06 GrdErr=5.00D-06 EigMax=2.50D+02 EigMin=1.00D-04
 Number of steps in this run=    304 maximum allowed number of steps=    324.
 GradGradGradGradGradGradGradGradGradGradGradGradGradGradGradGradGradGrad

 Leave Link  103 at Tue Feb 12 10:37:37 2019, MaxMem=  1342177280 cpu:               0.7 elap:               0.1
 (Enter /gpfs/apps/hpc/Apps/Restricted/Gaussian/g16/Rev_B.01-AVX/g16/l202.exe)
 Symmetry turned off by external request.
 Stoichiometry    C22H27N3O2(1+,2)
 Framework group  C1[X(C22H27N3O2)]
 Deg. of freedom   156
 Full point group                 C1      NOp   1
                          Input orientation:                          
 ---------------------------------------------------------------------
 Center     Atomic      Atomic             Coordinates (Angstroms)
 Number     Number       Type             X           Y           Z
 ---------------------------------------------------------------------
      1          6           0       -0.471013    2.719230    0.404467
      2          6           0       -1.870202    2.906417    0.296027
      3          6           0       -2.393723    4.196481    0.184858
      4          6           0       -1.495704    5.264154    0.184021
      5          6           0       -0.111614    5.065418    0.297463
      6          6           0        0.440692    3.783150    0.418279
      7          6           0       -1.520203    0.761602    0.415033
      8          1           0       -3.461023    4.356807    0.094799
      9          1           0       -1.873611    6.275398    0.091861
     10          1           0        0.535348    5.934541    0.275421
     11          7           0       -2.493061    1.668373    0.309223
     12          6           0       -3.064558   -1.180883    0.359005
     13          6           0       -1.740478   -0.674759    0.437918
     14          6           0       -0.656527   -1.560914    0.512119
     15          6           0       -0.842709   -2.937533    0.512881
     16          6           0       -2.162572   -3.407603    0.441611
     17          6           0       -3.284265   -2.577537    0.367178
     18          1           0        0.349407   -1.160354    0.564120
     19          1           0       -2.324358   -4.474191    0.443043
     20          6           0        0.372067   -3.870485    0.562377
     21          6           0       -4.703466   -3.164133    0.294389
     22          8           0       -4.120509   -0.340363    0.274156
     23          1           0       -3.773508    0.597669    0.268360
     24          7           0       -0.287037    1.359615    0.480757
     25          1           0        0.631217    0.939665    0.537028
     26          6           0        1.888924    3.472959    0.551452
     27          6           0        1.236211   -3.630258   -0.692437
     28          1           0        1.560530   -2.588531   -0.751958
     29          1           0        2.128127   -4.263454   -0.667599
     30          1           0        0.676152   -3.864086   -1.601848
     31          6           0        1.212889   -3.557266    1.815795
     32          1           0        0.634486   -3.729862    2.727402
     33          1           0        2.098218   -4.199146    1.845727
     34          1           0        1.550258   -2.517789    1.818098
     35          6           0       -0.032944   -5.350114    0.602283
     36          1           0       -0.630636   -5.581040    1.488274
     37          1           0       -0.607251   -5.635205   -0.283545
     38          1           0        0.864667   -5.972723    0.632625
     39          6           0       -5.382271   -2.736305   -1.023974
     40          1           0       -6.394280   -3.149723   -1.070858
     41          1           0       -5.446118   -1.652031   -1.105040
     42          1           0       -4.821026   -3.115547   -1.882644
     43          6           0       -5.536110   -2.677154    1.499787
     44          1           0       -5.637656   -1.592723    1.500692
     45          1           0       -6.535677   -3.120853    1.465186
     46          1           0       -5.061653   -2.980695    2.437132
     47          6           0       -4.687461   -4.701279    0.330629
     48          1           0       -4.135209   -5.121203   -0.514251
     49          1           0       -4.241050   -5.081316    1.253410
     50          1           0       -5.714901   -5.069031    0.276888
     51          8           0        2.289504    2.296552    0.528805
     52          7           0        2.746838    4.509291    0.681735
     53          1           0        2.432542    5.446434    0.872382
     54          1           0        3.716352    4.293268    0.856797
 ---------------------------------------------------------------------
 Rotational constants (GHZ):           0.2872360           0.1108631           0.0829397
 Leave Link  202 at Tue Feb 12 10:37:37 2019, MaxMem=  1342177280 cpu:               0.7 elap:               0.1
 (Enter /gpfs/apps/hpc/Apps/Restricted/Gaussian/g16/Rev_B.01-AVX/g16/l301.exe)
 Standard basis: 6-31G(d,p) (6D, 7F)
 Ernie: Thresh=  0.10000D-02 Tol=  0.10000D-05 Strict=F.
   540 basis functions,   945 primitive gaussians,   540 cartesian basis functions
    98 alpha electrons       97 beta electrons
       nuclear repulsion energy      2454.4745491282 Hartrees.
 IExCor=  402 DFT=T Ex+Corr=B3LYP ExCW=0 ScaHFX=  0.200000
 ScaDFX=  0.800000  0.720000  1.000000  0.810000 ScalE2=  1.000000  1.000000
 IRadAn=      5 IRanWt=     -1 IRanGd=            0 ICorTp=0 IEmpDi=141
 NAtoms=   54 NActive=   54 NUniq=   54 SFac= 1.00D+00 NAtFMM=   60 NAOKFM=F Big=F
 Integral buffers will be    131072 words long.
 Raffenetti 2 integral format.
 Two-electron integral symmetry is turned off.
 R6Disp:  Grimme-D3(BJ) Dispersion energy=       -0.1195293535 Hartrees.
 Nuclear repulsion after empirical dispersion term =     2454.3550197747 Hartrees.
 Using the following non-standard input for PCM:
 radii=bondi
 dis
 rep
 cav
 --- end of non-standard input.
 ------------------------------------------------------------------------------
 Polarizable Continuum Model (PCM)
 =================================
 Model                : C-PCM.
 Atomic radii         : Bondi.
 Polarization charges : Total charges.
 Charge compensation  : None.
 Solution method      : On-the-fly selection.
 Cavity type          : Scaled VdW (van der Waals Surface) (Alpha=1.100).
 Cavity algorithm     : GePol (No added spheres)
                        Default sphere list used, NSphG=   54.
                        Lebedev-Laikov grids with approx.  5.0 points / Ang**2.
                        Smoothing algorithm: York/Karplus (Gamma=1.0000).
                        Polarization charges: spherical gaussians, with
                                              point-specific exponents (IZeta= 3).
                        Self-potential: point-specific (ISelfS= 7).
                        Self-field    : sphere-specific E.n sum rule (ISelfD= 2).
 1st derivatives      : Analytical E(r).r(x)/FMM algorithm (CHGder, D1EAlg=3).
                        Cavity 1st derivative terms included.
 Solvent              : Dichloromethane, Eps=   8.930000 Eps(inf)=   2.028346
 ------------------------------------------------------------------------------
 GePol: Number of generator spheres                  =      54
 GePol: Total number of spheres                      =      54
 GePol: Number of exposed spheres                    =      54 (100.00%)
 GePol: Number of points                             =    3488
 GePol: Average weight of points                     =       0.12
 GePol: Minimum weight of points                     =   0.48D-11
 GePol: Maximum weight of points                     =    0.21770
 GePol: Number of points with low weight             =     245
 GePol: Fraction of low-weight points (<1% of avg)   =       7.02%
 GePol: Cavity surface area                          =    418.135 Ang**2
 GePol: Cavity volume                                =    404.392 Ang**3
 PCM non-electrostatic energy =         0.0175964968 Hartrees.
 Nuclear repulsion after PCM non-electrostatic terms =     2454.3726162715 Hartrees.
 Leave Link  301 at Tue Feb 12 10:37:37 2019, MaxMem=  1342177280 cpu:               3.6 elap:               0.3
 (Enter /gpfs/apps/hpc/Apps/Restricted/Gaussian/g16/Rev_B.01-AVX/g16/l302.exe)
 NPDir=0 NMtPBC=     1 NCelOv=     1 NCel=       1 NClECP=     1 NCelD=      1
         NCelK=      1 NCelE2=     1 NClLst=     1 CellRange=     0.0.
 One-electron integrals computed using PRISM.
 NBasis=   540 RedAO= T EigKep=  2.85D-04  NBF=   540
 NBsUse=   540 1.00D-06 EigRej= -1.00D+00 NBFU=   540
 Precomputing XC quadrature grid using
 IXCGrd= 4 IRadAn=           5 IRanWt=          -1 IRanGd=           0 AccXCQ= 0.00D+00.
 Generated NRdTot=       0 NPtTot=           0 NUsed=           0 NTot=          32
 NSgBfM=   533   533   533   533   533 MxSgAt=    54 MxSgA2=    54.
 Leave Link  302 at Tue Feb 12 10:37:38 2019, MaxMem=  1342177280 cpu:               9.4 elap:               0.6
 (Enter /gpfs/apps/hpc/Apps/Restricted/Gaussian/g16/Rev_B.01-AVX/g16/l303.exe)
 DipDrv:  MaxL=1.
 Leave Link  303 at Tue Feb 12 10:37:38 2019, MaxMem=  1342177280 cpu:               2.0 elap:               0.2
 (Enter /gpfs/apps/hpc/Apps/Restricted/Gaussian/g16/Rev_B.01-AVX/g16/l401.exe)
 ExpMin= 1.61D-01 ExpMax= 5.48D+03 ExpMxC= 8.25D+02 IAcc=3 IRadAn=         5 AccDes= 0.00D+00
 Harris functional with IExCor=  402 and IRadAn=       5 diagonalized for initial guess.
 HarFok:  IExCor=  402 AccDes= 0.00D+00 IRadAn=         5 IDoV= 1 UseB2=F ITyADJ=14
 ICtDFT=  3500011 ScaDFX=  1.000000  1.000000  1.000000  1.000000
 FoFCou: FMM=F IPFlag=           0 FMFlag=      100000 FMFlg1=           0
         NFxFlg=           0 DoJE=T BraDBF=F KetDBF=T FulRan=T
         wScrn=  0.000000 ICntrl=       500 IOpCl=  0 I1Cent=   200000004 NGrid=           0
         NMat0=    1 NMatS0=      1 NMatT0=    0 NMatD0=    1 NMtDS0=    0 NMtDT0=    0
 Symmetry not used in FoFCou.
 Harris En= -1169.29297616580    
 JPrj=0 DoOrth=F DoCkMO=F.
 Initial guess <Sx>= 0.0000 <Sy>= 0.0000 <Sz>= 0.5000 <S**2>= 0.7500 S= 0.5000
 Leave Link  401 at Tue Feb 12 10:37:40 2019, MaxMem=  1342177280 cpu:              36.0 elap:               2.3
 (Enter /gpfs/apps/hpc/Apps/Restricted/Gaussian/g16/Rev_B.01-AVX/g16/l502.exe)
 Two-electron integral symmetry not used.
 UHF open shell SCF:
 Using DIIS extrapolation, IDIIS=  1040.
 NGot=  1342177280 LenX=  1341580900 LenY=  1341288760
 Requested convergence on RMS density matrix=1.00D-08 within 128 cycles.
 Requested convergence on MAX density matrix=1.00D-06.
 Requested convergence on             energy=1.00D-06.
 No special actions if energy rises.
 Fock matrices will be formed incrementally for  20 cycles.

 Cycle   1  Pass 1  IDiag  1:
 FoFJK:  IHMeth= 1 ICntrl=       0 DoSepK=F KAlg= 0 I1Cent=           0 FoldK=F
 IRaf= 630000000 NMat=       1 IRICut=       1 DoRegI=T DoRafI=F ISym2E= 0 IDoP0=0 IntGTp=1.
 FoFCou: FMM=F IPFlag=           0 FMFlag=      100000 FMFlg1=           0
         NFxFlg=           0 DoJE=F BraDBF=F KetDBF=F FulRan=T
         wScrn=  0.000000 ICntrl=         0 IOpCl=  1 I1Cent=           0 NGrid=           0
         NMat0=    1 NMatS0=      1 NMatT0=    0 NMatD0=    1 NMtDS0=    0 NMtDT0=    0
 Symmetry not used in FoFCou.
 Inv3:  Mode=1 IEnd=    36498432.
 Iteration    1 A*A^-1 deviation from unit magnitude is 9.77D-15 for   3470.
 Iteration    1 A*A^-1 deviation from orthogonality  is 2.11D-15 for   3462   1521.
 Iteration    1 A^-1*A deviation from unit magnitude is 9.66D-15 for   3470.
 Iteration    1 A^-1*A deviation from orthogonality  is 2.00D-15 for   3482   3469.
 E= -1168.67439269381    
 DIIS: error= 2.86D-02 at cycle   1 NSaved=   1.
 NSaved= 1 IEnMin= 1 EnMin= -1168.67439269381     IErMin= 1 ErrMin= 2.86D-02
 ErrMax= 2.86D-02  0.00D+00 EMaxC= 1.00D-01 BMatC= 2.72D+00 BMatP= 2.72D+00
 IDIUse=3 WtCom= 7.14D-01 WtEn= 2.86D-01
 Coeff-Com:  0.100D+01
 Coeff-En:   0.100D+01
 Coeff:      0.100D+01
 Gap=     0.175 Goal=   None    Shift=    0.000
 Gap=     0.057 Goal=   None    Shift=    0.000
 GapD=    0.057 DampG=0.500 DampE=0.500 DampFc=0.2500 IDamp=-1.
 Damping current iteration by 2.50D-01
 RMSDP=3.77D-03 MaxDP=1.94D-01              OVMax= 4.38D-01

 Cycle   2  Pass 1  IDiag  1:
 RMSU=  9.20D-04    CP:  9.85D-01
 E= -1168.91582251516     Delta-E=       -0.241429821348 Rises=F Damp=T
 DIIS: error= 1.54D-02 at cycle   2 NSaved=   2.
 NSaved= 2 IEnMin= 2 EnMin= -1168.91582251516     IErMin= 2 ErrMin= 1.54D-02
 ErrMax= 1.54D-02  0.00D+00 EMaxC= 1.00D-01 BMatC= 6.65D-01 BMatP= 2.72D+00
 IDIUse=3 WtCom= 8.46D-01 WtEn= 1.54D-01
 Coeff-Com: -0.760D+00 0.176D+01
 Coeff-En:   0.000D+00 0.100D+01
 Coeff:     -0.643D+00 0.164D+01
 Gap=     0.231 Goal=   None    Shift=    0.000
 Gap=     0.082 Goal=   None    Shift=    0.000
 RMSDP=1.36D-03 MaxDP=7.52D-02 DE=-2.41D-01 OVMax= 4.28D-01

 Cycle   3  Pass 1  IDiag  1:
 RMSU=  1.08D-03    CP:  9.53D-01  1.76D+00
 E= -1169.30572830503     Delta-E=       -0.389905789872 Rises=F Damp=F
 DIIS: error= 1.03D-02 at cycle   3 NSaved=   3.
 NSaved= 3 IEnMin= 3 EnMin= -1169.30572830503     IErMin= 3 ErrMin= 1.03D-02
 ErrMax= 1.03D-02  0.00D+00 EMaxC= 1.00D-01 BMatC= 1.56D-01 BMatP= 6.65D-01
 IDIUse=3 WtCom= 8.97D-01 WtEn= 1.03D-01
 Coeff-Com: -0.373D+00 0.838D+00 0.535D+00
 Coeff-En:   0.000D+00 0.000D+00 0.100D+01
 Coeff:     -0.334D+00 0.752D+00 0.583D+00
 Gap=     0.166 Goal=   None    Shift=    0.000
 Gap=     0.042 Goal=   None    Shift=    0.000
 RMSDP=5.93D-04 MaxDP=4.86D-02 DE=-3.90D-01 OVMax= 1.68D-01

 Cycle   4  Pass 1  IDiag  1:
 RMSU=  4.36D-04    CP:  9.58D-01  1.91D+00  6.59D-01
 E= -1169.33260944924     Delta-E=       -0.026881144214 Rises=F Damp=F
 DIIS: error= 6.41D-03 at cycle   4 NSaved=   4.
 NSaved= 4 IEnMin= 4 EnMin= -1169.33260944924     IErMin= 4 ErrMin= 6.41D-03
 ErrMax= 6.41D-03  0.00D+00 EMaxC= 1.00D-01 BMatC= 5.08D-02 BMatP= 1.56D-01
 IDIUse=3 WtCom= 9.36D-01 WtEn= 6.41D-02
 Coeff-Com: -0.575D-01 0.141D+00 0.360D+00 0.557D+00
 Coeff-En:   0.000D+00 0.000D+00 0.244D+00 0.756D+00
 Coeff:     -0.538D-01 0.132D+00 0.353D+00 0.570D+00
 Gap=     0.169 Goal=   None    Shift=    0.000
 Gap=     0.046 Goal=   None    Shift=    0.000
 RMSDP=2.46D-04 MaxDP=2.32D-02 DE=-2.69D-02 OVMax= 4.31D-02

 Cycle   5  Pass 1  IDiag  1:
 RMSU=  1.37D-04    CP:  9.57D-01  1.84D+00  7.62D-01  6.42D-01
 E= -1169.34283604525     Delta-E=       -0.010226596009 Rises=F Damp=F
 DIIS: error= 1.43D-03 at cycle   5 NSaved=   5.
 NSaved= 5 IEnMin= 5 EnMin= -1169.34283604525     IErMin= 5 ErrMin= 1.43D-03
 ErrMax= 1.43D-03  0.00D+00 EMaxC= 1.00D-01 BMatC= 3.48D-03 BMatP= 5.08D-02
 IDIUse=3 WtCom= 9.86D-01 WtEn= 1.43D-02
 Coeff-Com:  0.169D-03 0.606D-02 0.149D+00 0.311D+00 0.533D+00
 Coeff-En:   0.000D+00 0.000D+00 0.000D+00 0.000D+00 0.100D+01
 Coeff:      0.167D-03 0.597D-02 0.147D+00 0.307D+00 0.540D+00
 Gap=     0.166 Goal=   None    Shift=    0.000
 Gap=     0.049 Goal=   None    Shift=    0.000
 RMSDP=7.80D-05 MaxDP=5.58D-03 DE=-1.02D-02 OVMax= 2.48D-02

 Cycle   6  Pass 1  IDiag  1:
 RMSU=  5.38D-05    CP:  9.57D-01  1.85D+00  7.63D-01  7.03D-01  6.41D-01
 E= -1169.34367681909     Delta-E=       -0.000840773837 Rises=F Damp=F
 DIIS: error= 4.23D-04 at cycle   6 NSaved=   6.
 NSaved= 6 IEnMin= 6 EnMin= -1169.34367681909     IErMin= 6 ErrMin= 4.23D-04
 ErrMax= 4.23D-04  0.00D+00 EMaxC= 1.00D-01 BMatC= 3.78D-04 BMatP= 3.48D-03
 IDIUse=3 WtCom= 9.96D-01 WtEn= 4.23D-03
 Coeff-Com:  0.479D-02-0.765D-02 0.512D-01 0.112D+00 0.301D+00 0.539D+00
 Coeff-En:   0.000D+00 0.000D+00 0.000D+00 0.000D+00 0.000D+00 0.100D+01
 Coeff:      0.477D-02-0.761D-02 0.510D-01 0.111D+00 0.300D+00 0.541D+00
 Gap=     0.166 Goal=   None    Shift=    0.000
 Gap=     0.049 Goal=   None    Shift=    0.000
 RMSDP=2.61D-05 MaxDP=1.92D-03 DE=-8.41D-04 OVMax= 9.75D-03

 Cycle   7  Pass 1  IDiag  1:
 RMSU=  2.25D-05    CP:  9.57D-01  1.85D+00  7.64D-01  7.09D-01  7.34D-01
                    CP:  1.01D+00
 E= -1169.34379569484     Delta-E=       -0.000118875755 Rises=F Damp=F
 DIIS: error= 1.89D-04 at cycle   7 NSaved=   7.
 NSaved= 7 IEnMin= 7 EnMin= -1169.34379569484     IErMin= 7 ErrMin= 1.89D-04
 ErrMax= 1.89D-04  0.00D+00 EMaxC= 1.00D-01 BMatC= 6.41D-05 BMatP= 3.78D-04
 IDIUse=3 WtCom= 9.98D-01 WtEn= 1.89D-03
 Coeff-Com:  0.297D-02-0.589D-02-0.511D-02-0.163D-01 0.455D-01 0.255D+00
 Coeff-Com:  0.724D+00
 Coeff-En:   0.000D+00 0.000D+00 0.000D+00 0.000D+00 0.000D+00 0.000D+00
 Coeff-En:   0.100D+01
 Coeff:      0.296D-02-0.588D-02-0.510D-02-0.163D-01 0.454D-01 0.255D+00
 Coeff:      0.724D+00
 Gap=     0.166 Goal=   None    Shift=    0.000
 Gap=     0.050 Goal=   None    Shift=    0.000
 RMSDP=2.12D-05 MaxDP=1.70D-03 DE=-1.19D-04 OVMax= 1.24D-02

 Cycle   8  Pass 1  IDiag  1:
 RMSU=  1.13D-05    CP:  9.57D-01  1.85D+00  7.65D-01  7.20D-01  7.87D-01
                    CP:  1.30D+00  1.18D+00
 E= -1169.34384527325     Delta-E=       -0.000049578410 Rises=F Damp=F
 DIIS: error= 1.49D-04 at cycle   8 NSaved=   8.
 NSaved= 8 IEnMin= 8 EnMin= -1169.34384527325     IErMin= 8 ErrMin= 1.49D-04
 ErrMax= 1.49D-04  0.00D+00 EMaxC= 1.00D-01 BMatC= 2.00D-05 BMatP= 6.41D-05
 IDIUse=3 WtCom= 9.99D-01 WtEn= 1.49D-03
 Coeff-Com:  0.828D-04-0.115D-03-0.156D-01-0.441D-01-0.700D-01-0.811D-01
 Coeff-Com:  0.297D+00 0.914D+00
 Coeff-En:   0.000D+00 0.000D+00 0.000D+00 0.000D+00 0.000D+00 0.000D+00
 Coeff-En:   0.000D+00 0.100D+01
 Coeff:      0.827D-04-0.115D-03-0.156D-01-0.441D-01-0.699D-01-0.810D-01
 Coeff:      0.296D+00 0.914D+00
 Gap=     0.166 Goal=   None    Shift=    0.000
 Gap=     0.050 Goal=   None    Shift=    0.000
 RMSDP=2.14D-05 MaxDP=1.95D-03 DE=-4.96D-05 OVMax= 1.41D-02

 Cycle   9  Pass 1  IDiag  1:
 RMSU=  6.86D-06    CP:  9.56D-01  1.85D+00  7.64D-01  7.30D-01  8.38D-01
                    CP:  1.54D+00  1.70D+00  1.45D+00
 E= -1169.34387382460     Delta-E=       -0.000028551343 Rises=F Damp=F
 DIIS: error= 7.17D-05 at cycle   9 NSaved=   9.
 NSaved= 9 IEnMin= 9 EnMin= -1169.34387382460     IErMin= 9 ErrMin= 7.17D-05
 ErrMax= 7.17D-05  0.00D+00 EMaxC= 1.00D-01 BMatC= 1.10D-05 BMatP= 2.00D-05
 IDIUse=1 WtCom= 1.00D+00 WtEn= 0.00D+00
 Coeff-Com: -0.401D-03 0.110D-02-0.795D-02-0.244D-01-0.614D-01-0.150D+00
 Coeff-Com: -0.959D-01 0.596D+00 0.743D+00
 Coeff:     -0.401D-03 0.110D-02-0.795D-02-0.244D-01-0.614D-01-0.150D+00
 Coeff:     -0.959D-01 0.596D+00 0.743D+00
 Gap=     0.165 Goal=   None    Shift=    0.000
 Gap=     0.050 Goal=   None    Shift=    0.000
 RMSDP=1.50D-05 MaxDP=1.28D-03 DE=-2.86D-05 OVMax= 9.81D-03

 Cycle  10  Pass 1  IDiag  1:
 RMSU=  4.00D-06    CP:  9.56D-01  1.85D+00  7.63D-01  7.36D-01  8.70D-01
                    CP:  1.72D+00  2.01D+00  1.99D+00  1.19D+00
 E= -1169.34388668296     Delta-E=       -0.000012858361 Rises=F Damp=F
 DIIS: error= 4.58D-05 at cycle  10 NSaved=  10.
 NSaved=10 IEnMin=10 EnMin= -1169.34388668296     IErMin=10 ErrMin= 4.58D-05
 ErrMax= 4.58D-05  0.00D+00 EMaxC= 1.00D-01 BMatC= 2.32D-06 BMatP= 1.10D-05
 IDIUse=1 WtCom= 1.00D+00 WtEn= 0.00D+00
 Coeff-Com:  0.175D-03-0.245D-04 0.166D-02 0.156D-02-0.498D-02-0.372D-01
 Coeff-Com: -0.121D+00 0.273D-01 0.320D+00 0.813D+00
 Coeff:      0.175D-03-0.245D-04 0.166D-02 0.156D-02-0.498D-02-0.372D-01
 Coeff:     -0.121D+00 0.273D-01 0.320D+00 0.813D+00
 Gap=     0.165 Goal=   None    Shift=    0.000
 Gap=     0.050 Goal=   None    Shift=    0.000
 RMSDP=7.54D-06 MaxDP=5.94D-04 DE=-1.29D-05 OVMax= 4.99D-03

 Cycle  11  Pass 1  IDiag  1:
 RMSU=  2.11D-06    CP:  9.56D-01  1.85D+00  7.63D-01  7.40D-01  8.81D-01
                    CP:  1.80D+00  2.16D+00  2.26D+00  1.58D+00  1.35D+00
 E= -1169.34389036297     Delta-E=       -0.000003680014 Rises=F Damp=F
 DIIS: error= 3.29D-05 at cycle  11 NSaved=  11.
 NSaved=11 IEnMin=11 EnMin= -1169.34389036297     IErMin=11 ErrMin= 3.29D-05
 ErrMax= 3.29D-05  0.00D+00 EMaxC= 1.00D-01 BMatC= 8.73D-07 BMatP= 2.32D-06
 IDIUse=1 WtCom= 1.00D+00 WtEn= 0.00D+00
 Coeff-Com:  0.353D-03-0.563D-03 0.513D-02 0.122D-01 0.269D-01 0.521D-01
 Coeff-Com: -0.295D-01-0.266D+00-0.162D+00 0.422D+00 0.939D+00
 Coeff:      0.353D-03-0.563D-03 0.513D-02 0.122D-01 0.269D-01 0.521D-01
 Coeff:     -0.295D-01-0.266D+00-0.162D+00 0.422D+00 0.939D+00
 Gap=     0.165 Goal=   None    Shift=    0.000
 Gap=     0.050 Goal=   None    Shift=    0.000
 RMSDP=6.76D-06 MaxDP=7.44D-04 DE=-3.68D-06 OVMax= 4.50D-03

 Cycle  12  Pass 1  IDiag  1:
 RMSU=  1.19D-06    CP:  9.56D-01  1.85D+00  7.63D-01  7.42D-01  8.91D-01
                    CP:  1.86D+00  2.29D+00  2.52D+00  1.93D+00  2.03D+00
                    CP:  1.31D+00
 E= -1169.34389234760     Delta-E=       -0.000001984626 Rises=F Damp=F
 DIIS: error= 1.45D-05 at cycle  12 NSaved=  12.
 NSaved=12 IEnMin=12 EnMin= -1169.34389234760     IErMin=12 ErrMin= 1.45D-05
 ErrMax= 1.45D-05  0.00D+00 EMaxC= 1.00D-01 BMatC= 2.98D-07 BMatP= 8.73D-07
 IDIUse=1 WtCom= 1.00D+00 WtEn= 0.00D+00
 Coeff-Com:  0.102D-03-0.239D-03 0.955D-03 0.232D-02 0.892D-02 0.255D-01
 Coeff-Com:  0.194D-01-0.789D-01-0.126D+00-0.183D+00 0.368D+00 0.963D+00
 Coeff:      0.102D-03-0.239D-03 0.955D-03 0.232D-02 0.892D-02 0.255D-01
 Coeff:      0.194D-01-0.789D-01-0.126D+00-0.183D+00 0.368D+00 0.963D+00
 Gap=     0.165 Goal=   None    Shift=    0.000
 Gap=     0.050 Goal=   None    Shift=    0.000
 RMSDP=3.77D-06 MaxDP=4.01D-04 DE=-1.98D-06 OVMax= 2.39D-03

 Cycle  13  Pass 1  IDiag  1:
 RMSU=  7.09D-07    CP:  9.56D-01  1.85D+00  7.63D-01  7.44D-01  8.95D-01
                    CP:  1.90D+00  2.36D+00  2.65D+00  2.14D+00  2.39D+00
                    CP:  1.82D+00  1.37D+00
 E= -1169.34389287915     Delta-E=       -0.000000531552 Rises=F Damp=F
 DIIS: error= 1.12D-05 at cycle  13 NSaved=  13.
 NSaved=13 IEnMin=13 EnMin= -1169.34389287915     IErMin=13 ErrMin= 1.12D-05
 ErrMax= 1.12D-05  0.00D+00 EMaxC= 1.00D-01 BMatC= 1.23D-07 BMatP= 2.98D-07
 IDIUse=1 WtCom= 1.00D+00 WtEn= 0.00D+00
 Coeff-Com: -0.202D-04-0.633D-05-0.765D-03-0.212D-02-0.187D-02 0.213D-02
 Coeff-Com:  0.217D-01 0.305D-01-0.295D-01-0.256D+00 0.120D-01 0.607D+00
 Coeff-Com:  0.617D+00
 Coeff:     -0.202D-04-0.633D-05-0.765D-03-0.212D-02-0.187D-02 0.213D-02
 Coeff:      0.217D-01 0.305D-01-0.295D-01-0.256D+00 0.120D-01 0.607D+00
 Coeff:      0.617D+00
 Gap=     0.165 Goal=   None    Shift=    0.000
 Gap=     0.050 Goal=   None    Shift=    0.000
 RMSDP=1.22D-06 MaxDP=1.29D-04 DE=-5.32D-07 OVMax= 7.54D-04

 Cycle  14  Pass 1  IDiag  1:
 RMSU=  4.11D-07    CP:  9.56D-01  1.85D+00  7.62D-01  7.44D-01  8.97D-01
                    CP:  1.90D+00  2.37D+00  2.69D+00  2.20D+00  2.52D+00
                    CP:  1.98D+00  1.74D+00  9.37D-01
 E= -1169.34389298501     Delta-E=       -0.000000105859 Rises=F Damp=F
 DIIS: error= 5.24D-06 at cycle  14 NSaved=  14.
 NSaved=14 IEnMin=14 EnMin= -1169.34389298501     IErMin=14 ErrMin= 5.24D-06
 ErrMax= 5.24D-06  0.00D+00 EMaxC= 1.00D-01 BMatC= 3.53D-08 BMatP= 1.23D-07
 IDIUse=1 WtCom= 1.00D+00 WtEn= 0.00D+00
 Coeff-Com: -0.265D-04 0.535D-04-0.641D-03-0.177D-02-0.378D-02-0.679D-02
 Coeff-Com:  0.204D-02 0.365D-01 0.262D-01-0.767D-01-0.878D-01-0.617D-01
 Coeff-Com:  0.334D+00 0.841D+00
 Coeff:     -0.265D-04 0.535D-04-0.641D-03-0.177D-02-0.378D-02-0.679D-02
 Coeff:      0.204D-02 0.365D-01 0.262D-01-0.767D-01-0.878D-01-0.617D-01
 Coeff:      0.334D+00 0.841D+00
 Gap=     0.165 Goal=   None    Shift=    0.000
 Gap=     0.050 Goal=   None    Shift=    0.000
 RMSDP=1.04D-06 MaxDP=1.04D-04 DE=-1.06D-07 OVMax= 6.45D-04

 Cycle  15  Pass 1  IDiag  1:
 RMSU=  2.03D-07    CP:  9.56D-01  1.85D+00  7.62D-01  7.44D-01  8.98D-01
                    CP:  1.91D+00  2.39D+00  2.72D+00  2.25D+00  2.61D+00
                    CP:  2.12D+00  1.99D+00  1.28D+00  1.28D+00
 E= -1169.34389303065     Delta-E=       -0.000000045647 Rises=F Damp=F
 DIIS: error= 2.78D-06 at cycle  15 NSaved=  15.
 NSaved=15 IEnMin=15 EnMin= -1169.34389303065     IErMin=15 ErrMin= 2.78D-06
 ErrMax= 2.78D-06  0.00D+00 EMaxC= 1.00D-01 BMatC= 8.57D-09 BMatP= 3.53D-08
 IDIUse=1 WtCom= 1.00D+00 WtEn= 0.00D+00
 Coeff-Com:  0.289D-05 0.187D-04-0.149D-03-0.507D-03-0.193D-02-0.510D-02
 Coeff-Com: -0.556D-02 0.149D-01 0.293D-01 0.352D-01-0.439D-01-0.245D+00
 Coeff-Com:  0.208D-01 0.419D+00 0.783D+00
 Coeff:      0.289D-05 0.187D-04-0.149D-03-0.507D-03-0.193D-02-0.510D-02
 Coeff:     -0.556D-02 0.149D-01 0.293D-01 0.352D-01-0.439D-01-0.245D+00
 Coeff:      0.208D-01 0.419D+00 0.783D+00
 Gap=     0.165 Goal=   None    Shift=    0.000
 Gap=     0.050 Goal=   None    Shift=    0.000
 RMSDP=4.11D-07 MaxDP=3.42D-05 DE=-4.56D-08 OVMax= 2.38D-04

 Cycle  16  Pass 1  IDiag  1:
 RMSU=  1.44D-07    CP:  9.56D-01  1.85D+00  7.62D-01  7.45D-01  8.98D-01
                    CP:  1.91D+00  2.39D+00  2.73D+00  2.27D+00  2.64D+00
                    CP:  2.17D+00  2.12D+00  1.48D+00  1.70D+00  1.14D+00
 E= -1169.34389304201     Delta-E=       -0.000000011360 Rises=F Damp=F
 DIIS: error= 1.62D-06 at cycle  16 NSaved=  16.
 NSaved=16 IEnMin=16 EnMin= -1169.34389304201     IErMin=16 ErrMin= 1.62D-06
 ErrMax= 1.62D-06  0.00D+00 EMaxC= 1.00D-01 BMatC= 4.14D-09 BMatP= 8.57D-09
 IDIUse=1 WtCom= 1.00D+00 WtEn= 0.00D+00
 Coeff-Com:  0.217D-04-0.257D-04 0.157D-03 0.355D-03 0.362D-03-0.138D-03
 Coeff-Com: -0.335D-02-0.602D-02 0.520D-02 0.388D-01 0.120D-01-0.105D+00
 Coeff-Com: -0.834D-01-0.144D+00 0.467D+00 0.818D+00
 Coeff:      0.217D-04-0.257D-04 0.157D-03 0.355D-03 0.362D-03-0.138D-03
 Coeff:     -0.335D-02-0.602D-02 0.520D-02 0.388D-01 0.120D-01-0.105D+00
 Coeff:     -0.834D-01-0.144D+00 0.467D+00 0.818D+00
 Gap=     0.165 Goal=   None    Shift=    0.000
 Gap=     0.050 Goal=   None    Shift=    0.000
 RMSDP=3.44D-07 MaxDP=2.65D-05 DE=-1.14D-08 OVMax= 2.11D-04

 Cycle  17  Pass 1  IDiag  1:
 RMSU=  6.53D-08    CP:  9.56D-01  1.85D+00  7.62D-01  7.45D-01  8.98D-01
                    CP:  1.92D+00  2.40D+00  2.74D+00  2.28D+00  2.67D+00
                    CP:  2.21D+00  2.21D+00  1.61D+00  1.96D+00  1.62D+00
                    CP:  1.25D+00
 E= -1169.34389304702     Delta-E=       -0.000000005001 Rises=F Damp=F
 DIIS: error= 5.96D-07 at cycle  17 NSaved=  17.
 NSaved=17 IEnMin=17 EnMin= -1169.34389304702     IErMin=17 ErrMin= 5.96D-07
 ErrMax= 5.96D-07  0.00D+00 EMaxC= 1.00D-01 BMatC= 6.61D-10 BMatP= 4.14D-09
 IDIUse=1 WtCom= 1.00D+00 WtEn= 0.00D+00
 Coeff-Com:  0.105D-04-0.164D-04 0.952D-04 0.220D-03 0.518D-03 0.869D-03
 Coeff-Com:  0.187D-03-0.486D-02-0.363D-02 0.650D-02 0.141D-01 0.489D-02
 Coeff-Com: -0.269D-01-0.168D+00 0.677D-01 0.254D+00 0.855D+00
 Coeff:      0.105D-04-0.164D-04 0.952D-04 0.220D-03 0.518D-03 0.869D-03
 Coeff:      0.187D-03-0.486D-02-0.363D-02 0.650D-02 0.141D-01 0.489D-02
 Coeff:     -0.269D-01-0.168D+00 0.677D-01 0.254D+00 0.855D+00
 Gap=     0.165 Goal=   None    Shift=    0.000
 Gap=     0.050 Goal=   None    Shift=    0.000
 RMSDP=1.45D-07 MaxDP=1.19D-05 DE=-5.00D-09 OVMax= 8.53D-05

 Cycle  18  Pass 1  IDiag  1:
 RMSU=  3.55D-08    CP:  9.56D-01  1.85D+00  7.62D-01  7.45D-01  8.98D-01
                    CP:  1.92D+00  2.40D+00  2.75D+00  2.29D+00  2.68D+00
                    CP:  2.22D+00  2.24D+00  1.66D+00  2.08D+00  1.85D+00
                    CP:  1.59D+00  1.35D+00
 E= -1169.34389304802     Delta-E=       -0.000000001008 Rises=F Damp=F
 DIIS: error= 4.45D-07 at cycle  18 NSaved=  18.
 NSaved=18 IEnMin=18 EnMin= -1169.34389304802     IErMin=18 ErrMin= 4.45D-07
 ErrMax= 4.45D-07  0.00D+00 EMaxC= 1.00D-01 BMatC= 3.71D-10 BMatP= 6.61D-10
 IDIUse=1 WtCom= 1.00D+00 WtEn= 0.00D+00
 Coeff-Com: -0.162D-05-0.338D-06-0.128D-04-0.412D-04 0.109D-03 0.381D-03
 Coeff-Com:  0.143D-02-0.122D-03-0.392D-02-0.118D-01 0.430D-02 0.431D-01
 Coeff-Com:  0.253D-01-0.532D-01-0.130D+00-0.220D+00 0.569D+00 0.775D+00
 Coeff:     -0.162D-05-0.338D-06-0.128D-04-0.412D-04 0.109D-03 0.381D-03
 Coeff:      0.143D-02-0.122D-03-0.392D-02-0.118D-01 0.430D-02 0.431D-01
 Coeff:      0.253D-01-0.532D-01-0.130D+00-0.220D+00 0.569D+00 0.775D+00
 Gap=     0.165 Goal=   None    Shift=    0.000
 Gap=     0.050 Goal=   None    Shift=    0.000
 RMSDP=8.92D-08 MaxDP=7.47D-06 DE=-1.01D-09 OVMax= 4.57D-05

 Cycle  19  Pass 1  IDiag  1:
 RMSU=  2.09D-08    CP:  9.56D-01  1.85D+00  7.62D-01  7.45D-01  8.98D-01
                    CP:  1.92D+00  2.40D+00  2.75D+00  2.29D+00  2.69D+00
                    CP:  2.23D+00  2.26D+00  1.69D+00  2.15D+00  2.01D+00
                    CP:  1.81D+00  1.89D+00  1.16D+00
 E= -1169.34389304845     Delta-E=       -0.000000000430 Rises=F Damp=F
 DIIS: error= 1.95D-07 at cycle  19 NSaved=  19.
 NSaved=19 IEnMin=19 EnMin= -1169.34389304845     IErMin=19 ErrMin= 1.95D-07
 ErrMax= 1.95D-07  0.00D+00 EMaxC= 1.00D-01 BMatC= 6.71D-11 BMatP= 3.71D-10
 IDIUse=1 WtCom= 1.00D+00 WtEn= 0.00D+00
 Coeff-Com: -0.356D-05 0.430D-05-0.307D-04-0.795D-04-0.766D-04-0.719D-04
 Coeff-Com:  0.685D-03 0.140D-02-0.903D-03-0.712D-02-0.196D-02 0.169D-01
 Coeff-Com:  0.219D-01 0.186D-01-0.767D-01-0.191D+00 0.500D-01 0.331D+00
 Coeff-Com:  0.838D+00
 Coeff:     -0.356D-05 0.430D-05-0.307D-04-0.795D-04-0.766D-04-0.719D-04
 Coeff:      0.685D-03 0.140D-02-0.903D-03-0.712D-02-0.196D-02 0.169D-01
 Coeff:      0.219D-01 0.186D-01-0.767D-01-0.191D+00 0.500D-01 0.331D+00
 Coeff:      0.838D+00
 Gap=     0.165 Goal=   None    Shift=    0.000
 Gap=     0.050 Goal=   None    Shift=    0.000
 RMSDP=4.58D-08 MaxDP=4.26D-06 DE=-4.30D-10 OVMax= 2.15D-05

 Cycle  20  Pass 1  IDiag  1:
 RMSU=  1.14D-08    CP:  9.56D-01  1.85D+00  7.62D-01  7.45D-01  8.98D-01
                    CP:  1.92D+00  2.40D+00  2.75D+00  2.29D+00  2.69D+00
                    CP:  2.23D+00  2.27D+00  1.70D+00  2.19D+00  2.10D+00
                    CP:  1.95D+00  2.16D+00  1.52D+00  1.12D+00
 E= -1169.34389304855     Delta-E=       -0.000000000102 Rises=F Damp=F
 DIIS: error= 1.06D-07 at cycle  20 NSaved=  20.
 NSaved=20 IEnMin=20 EnMin= -1169.34389304855     IErMin=20 ErrMin= 1.06D-07
 ErrMax= 1.06D-07  0.00D+00 EMaxC= 1.00D-01 BMatC= 2.81D-11 BMatP= 6.71D-11
 IDIUse=1 WtCom= 1.00D+00 WtEn= 0.00D+00
 Coeff-Com: -0.181D-05 0.307D-05-0.148D-04-0.352D-04-0.872D-04-0.199D-03
 Coeff-Com: -0.109D-03 0.907D-03 0.844D-03 0.208D-03-0.254D-02-0.593D-02
 Coeff-Com:  0.450D-02 0.297D-01 0.338D-02-0.293D-01-0.166D+00-0.133D+00
 Coeff-Com:  0.485D+00 0.813D+00
 Coeff:     -0.181D-05 0.307D-05-0.148D-04-0.352D-04-0.872D-04-0.199D-03
 Coeff:     -0.109D-03 0.907D-03 0.844D-03 0.208D-03-0.254D-02-0.593D-02
 Coeff:      0.450D-02 0.297D-01 0.338D-02-0.293D-01-0.166D+00-0.133D+00
 Coeff:      0.485D+00 0.813D+00
 Gap=     0.165 Goal=   None    Shift=    0.000
 Gap=     0.050 Goal=   None    Shift=    0.000
 RMSDP=2.23D-08 MaxDP=2.34D-06 DE=-1.02D-10 OVMax= 1.01D-05

 Cycle  21  Pass 1  IDiag  1:
 Restarting incremental Fock formation.
 E= -1169.34389304857     Delta-E=       -0.000000000018 Rises=F Damp=F
 DIIS: error= 5.15D-08 at cycle  21 NSaved=  20.
 NSaved=20 IEnMin=20 EnMin= -1169.34389304857     IErMin=20 ErrMin= 5.15D-08
 ErrMax= 5.15D-08  0.00D+00 EMaxC= 1.00D-01 BMatC= 6.01D-12 BMatP= 2.81D-11
 IDIUse=1 WtCom= 1.00D+00 WtEn= 0.00D+00
 Coeff-Com:  0.316D-06-0.395D-06 0.197D-05-0.235D-04-0.924D-04-0.237D-03
 Coeff-Com:  0.981D-04 0.630D-03 0.195D-02-0.834D-03-0.714D-02-0.265D-02
 Coeff-Com:  0.112D-01 0.186D-01 0.291D-01-0.937D-01-0.142D+00 0.933D-01
 Coeff-Com:  0.433D+00 0.659D+00
 Coeff:      0.316D-06-0.395D-06 0.197D-05-0.235D-04-0.924D-04-0.237D-03
 Coeff:      0.981D-04 0.630D-03 0.195D-02-0.834D-03-0.714D-02-0.265D-02
 Coeff:      0.112D-01 0.186D-01 0.291D-01-0.937D-01-0.142D+00 0.933D-01
 Coeff:      0.433D+00 0.659D+00
 Gap=     0.165 Goal=   None    Shift=    0.000
 Gap=     0.050 Goal=   None    Shift=    0.000
 RMSDP=5.73D-09 MaxDP=6.28D-07 DE=-1.82D-11 OVMax= 2.21D-06

 Error on total polarization charges =  0.03721
 SCF Done:  E(UB3LYP) =  -1169.34389305     A.U. after   21 cycles
            NFock= 21  Conv=0.57D-08     -V/T= 2.0096
 <Sx>= 0.0000 <Sy>= 0.0000 <Sz>= 0.5000 <S**2>= 0.7611 S= 0.5055
 <L.S>=  0.00000000000    
 KE= 1.158215256348D+03 PE=-7.598683575602D+03 EE= 2.816751809933D+03
 Annihilation of the first spin contaminant:
 S**2 before annihilation     0.7611,   after     0.7501
 Leave Link  502 at Tue Feb 12 10:40:32 2019, MaxMem=  1342177280 cpu:            2711.0 elap:             172.0
 (Enter /gpfs/apps/hpc/Apps/Restricted/Gaussian/g16/Rev_B.01-AVX/g16/l601.exe)
 Copying SCF densities to generalized density rwf, IOpCl= 1 IROHF=0.

 **********************************************************************

            Population analysis using the SCF Density.

 **********************************************************************

 Alpha  occ. eigenvalues --  -19.23671 -19.13948 -14.42179 -14.37815 -14.37121
 Alpha  occ. eigenvalues --  -10.32729 -10.31856 -10.31185 -10.27149 -10.26944
 Alpha  occ. eigenvalues --  -10.25923 -10.25166 -10.24383 -10.23577 -10.23554
 Alpha  occ. eigenvalues --  -10.23367 -10.23234 -10.22723 -10.22595 -10.22305
 Alpha  occ. eigenvalues --  -10.22187 -10.18819 -10.18781 -10.18421 -10.18230
 Alpha  occ. eigenvalues --  -10.18066 -10.18064  -1.11832  -1.06447  -1.05162
 Alpha  occ. eigenvalues --   -0.92520  -0.92127  -0.91766  -0.88699  -0.85313
 Alpha  occ. eigenvalues --   -0.84472  -0.80142  -0.78902  -0.77349  -0.76592
 Alpha  occ. eigenvalues --   -0.71196  -0.69864  -0.69684  -0.69372  -0.68531
 Alpha  occ. eigenvalues --   -0.67290  -0.66059  -0.65069  -0.63855  -0.62565
 Alpha  occ. eigenvalues --   -0.59105  -0.58566  -0.57176  -0.55627  -0.54156
 Alpha  occ. eigenvalues --   -0.53863  -0.52496  -0.51372  -0.49869  -0.49825
 Alpha  occ. eigenvalues --   -0.48674  -0.47830  -0.47375  -0.47139  -0.46247
 Alpha  occ. eigenvalues --   -0.45573  -0.45369  -0.44939  -0.44771  -0.43861
 Alpha  occ. eigenvalues --   -0.43516  -0.43466  -0.42162  -0.41209  -0.41100
 Alpha  occ. eigenvalues --   -0.40088  -0.39810  -0.39451  -0.39034  -0.38709
 Alpha  occ. eigenvalues --   -0.38487  -0.37633  -0.37310  -0.36925  -0.36421
 Alpha  occ. eigenvalues --   -0.34990  -0.34822  -0.34685  -0.34159  -0.34134
 Alpha  occ. eigenvalues --   -0.33318  -0.32492  -0.31131  -0.29084  -0.28346
 Alpha  occ. eigenvalues --   -0.27340  -0.26608  -0.25810
 Alpha virt. eigenvalues --   -0.09296  -0.05404  -0.04759  -0.01731   0.01834
 Alpha virt. eigenvalues --    0.05025   0.06055   0.07138   0.08207   0.08791
 Alpha virt. eigenvalues --    0.09943   0.10743   0.11483   0.11964   0.12437
 Alpha virt. eigenvalues --    0.12976   0.13452   0.13559   0.13753   0.15120
 Alpha virt. eigenvalues --    0.15245   0.15553   0.15734   0.15776   0.16134
 Alpha virt. eigenvalues --    0.16440   0.16743   0.17046   0.17635   0.18750
 Alpha virt. eigenvalues --    0.19044   0.19476   0.19789   0.19928   0.20452
 Alpha virt. eigenvalues --    0.20823   0.21014   0.21318   0.21883   0.22754
 Alpha virt. eigenvalues --    0.22854   0.23227   0.23486   0.24221   0.24368
 Alpha virt. eigenvalues --    0.24623   0.25022   0.25565   0.27388   0.28939
 Alpha virt. eigenvalues --    0.30411   0.31511   0.32287   0.33802   0.34456
 Alpha virt. eigenvalues --    0.36672   0.38000   0.38320   0.41007   0.42912
 Alpha virt. eigenvalues --    0.44016   0.44624   0.46411   0.46912   0.47499
 Alpha virt. eigenvalues --    0.47914   0.48602   0.48916   0.49241   0.49543
 Alpha virt. eigenvalues --    0.50565   0.50816   0.51454   0.51582   0.51981
 Alpha virt. eigenvalues --    0.52157   0.52783   0.53249   0.54437   0.54661
 Alpha virt. eigenvalues --    0.56171   0.56459   0.57216   0.58125   0.58440
 Alpha virt. eigenvalues --    0.58723   0.59089   0.59285   0.59590   0.59750
 Alpha virt. eigenvalues --    0.60705   0.60836   0.61406   0.62097   0.62738
 Alpha virt. eigenvalues --    0.63046   0.64690   0.65027   0.65651   0.66173
 Alpha virt. eigenvalues --    0.67101   0.67802   0.68410   0.69501   0.70027
 Alpha virt. eigenvalues --    0.70288   0.71570   0.73621   0.73799   0.74559
 Alpha virt. eigenvalues --    0.75361   0.75811   0.76850   0.77217   0.78723
 Alpha virt. eigenvalues --    0.79679   0.80088   0.80288   0.80755   0.81159
 Alpha virt. eigenvalues --    0.81826   0.82457   0.83071   0.83674   0.83909
 Alpha virt. eigenvalues --    0.84641   0.85273   0.85459   0.85529   0.86057
 Alpha virt. eigenvalues --    0.86394   0.86787   0.87262   0.87273   0.87827
 Alpha virt. eigenvalues --    0.88125   0.88404   0.89385   0.90278   0.90571
 Alpha virt. eigenvalues --    0.90853   0.91377   0.91770   0.92859   0.93052
 Alpha virt. eigenvalues --    0.93112   0.94198   0.94809   0.95132   0.95649
 Alpha virt. eigenvalues --    0.96339   0.96708   0.97209   0.97676   0.99371
 Alpha virt. eigenvalues --    0.99694   1.00341   1.00552   1.04288   1.04351
 Alpha virt. eigenvalues --    1.04616   1.06838   1.08600   1.10015   1.11178
 Alpha virt. eigenvalues --    1.12155   1.14119   1.15144   1.16795   1.16978
 Alpha virt. eigenvalues --    1.17567   1.19057   1.19719   1.21129   1.22003
 Alpha virt. eigenvalues --    1.22764   1.23327   1.23585   1.24154   1.24770
 Alpha virt. eigenvalues --    1.26365   1.26920   1.27763   1.29849   1.31196
 Alpha virt. eigenvalues --    1.31508   1.33434   1.34386   1.34814   1.36194
 Alpha virt. eigenvalues --    1.36467   1.37483   1.37897   1.38171   1.39454
 Alpha virt. eigenvalues --    1.41447   1.42836   1.44463   1.44774   1.45902
 Alpha virt. eigenvalues --    1.45964   1.47959   1.48316   1.48896   1.49043
 Alpha virt. eigenvalues --    1.50243   1.51059   1.52312   1.52907   1.53588
 Alpha virt. eigenvalues --    1.57787   1.59727   1.59982   1.60470   1.66323
 Alpha virt. eigenvalues --    1.66968   1.68136   1.68862   1.69580   1.71189
 Alpha virt. eigenvalues --    1.72042   1.74347   1.75713   1.76039   1.76280
 Alpha virt. eigenvalues --    1.76895   1.78039   1.79189   1.79508   1.79865
 Alpha virt. eigenvalues --    1.80270   1.80703   1.81750   1.82430   1.83536
 Alpha virt. eigenvalues --    1.83915   1.84295   1.84442   1.84792   1.86388
 Alpha virt. eigenvalues --    1.86633   1.87058   1.87345   1.87766   1.88508
 Alpha virt. eigenvalues --    1.89209   1.91431   1.91713   1.92547   1.93965
 Alpha virt. eigenvalues --    1.94480   1.95470   1.95763   1.97316   1.98787
 Alpha virt. eigenvalues --    1.99442   2.00887   2.01759   2.02320   2.02822
 Alpha virt. eigenvalues --    2.03672   2.03703   2.04023   2.04067   2.04342
 Alpha virt. eigenvalues --    2.04741   2.05729   2.06543   2.07313   2.07452
 Alpha virt. eigenvalues --    2.08063   2.08365   2.09326   2.09610   2.09936
 Alpha virt. eigenvalues --    2.10026   2.11690   2.11894   2.12445   2.12918
 Alpha virt. eigenvalues --    2.13241   2.13492   2.14811   2.14924   2.15390
 Alpha virt. eigenvalues --    2.16914   2.17244   2.19355   2.19893   2.20891
 Alpha virt. eigenvalues --    2.21426   2.22055   2.22568   2.23811   2.24503
 Alpha virt. eigenvalues --    2.25954   2.26276   2.26933   2.28185   2.28884
 Alpha virt. eigenvalues --    2.30590   2.30928   2.31068   2.32693   2.33619
 Alpha virt. eigenvalues --    2.34118   2.35917   2.37870   2.37971   2.38822
 Alpha virt. eigenvalues --    2.39369   2.39660   2.40603   2.41383   2.42335
 Alpha virt. eigenvalues --    2.43690   2.44993   2.47632   2.48545   2.49932
 Alpha virt. eigenvalues --    2.50297   2.51325   2.51765   2.52076   2.52232
 Alpha virt. eigenvalues --    2.52901   2.54197   2.54663   2.57973   2.58645
 Alpha virt. eigenvalues --    2.59460   2.59770   2.60173   2.61169   2.62335
 Alpha virt. eigenvalues --    2.62735   2.63547   2.63618   2.66047   2.66381
 Alpha virt. eigenvalues --    2.66885   2.67826   2.68834   2.70228   2.70358
 Alpha virt. eigenvalues --    2.70784   2.71427   2.71793   2.72555   2.73556
 Alpha virt. eigenvalues --    2.73809   2.73991   2.74347   2.74867   2.75843
 Alpha virt. eigenvalues --    2.78145   2.78320   2.80366   2.81122   2.83594
 Alpha virt. eigenvalues --    2.84906   2.86135   2.86536   2.86767   2.86979
 Alpha virt. eigenvalues --    2.87488   2.87888   2.88808   2.89831   2.91426
 Alpha virt. eigenvalues --    2.92977   2.93258   2.94132   2.95472   2.96865
 Alpha virt. eigenvalues --    2.98023   2.98809   3.01810   3.03850   3.06331
 Alpha virt. eigenvalues --    3.07755   3.10701   3.10923   3.14588   3.17037
 Alpha virt. eigenvalues --    3.17919   3.20589   3.21124   3.22847   3.24101
 Alpha virt. eigenvalues --    3.24189   3.25790   3.27075   3.31492   3.36819
 Alpha virt. eigenvalues --    3.37800   3.41085   3.41166   3.41587   3.42231
 Alpha virt. eigenvalues --    3.42417   3.42871   3.42896   3.43904   3.44627
 Alpha virt. eigenvalues --    3.44989   3.50362   3.50604   3.51573   3.52733
 Alpha virt. eigenvalues --    3.55290   3.58284   3.61329   3.68763   3.78130
 Alpha virt. eigenvalues --    4.00718   4.03531   4.07060   4.09923   4.11455
[...]
   D35       -3.12615   0.00026   0.00377   0.00223   0.00594  -3.12021
   D36        0.00520   0.00004   0.00129  -0.00138  -0.00008   0.00512
   D37       -0.00208  -0.00034  -0.00486  -0.00550  -0.01038  -0.01245
   D38        3.12377  -0.00067  -0.00875  -0.01022  -0.01899   3.10479
   D39       -3.13185  -0.00005  -0.00214  -0.00112  -0.00325  -3.13510
   D40       -0.00600  -0.00037  -0.00603  -0.00585  -0.01186  -0.01786
   D41       -0.00432  -0.00001  -0.00132   0.00188   0.00056  -0.00377
   D42       -3.10743   0.00010   0.00015   0.00155   0.00173  -3.10571
   D43        3.12668  -0.00038  -0.00392  -0.00200  -0.00594   3.12074
   D44        0.02357  -0.00027  -0.00244  -0.00233  -0.00477   0.01880
   D45        3.13661  -0.00024  -0.00417  -0.00377  -0.00782   3.12879
   D46        0.01022  -0.00003  -0.00033   0.00056   0.00023   0.01045
   D47        0.00149  -0.00029  -0.00568  -0.00209  -0.00770  -0.00621
   D48       -3.12490  -0.00008  -0.00184   0.00224   0.00035  -3.12454
   D49       -0.01147  -0.00013   0.00044  -0.00499  -0.00452  -0.01599
   D50        3.12891   0.00003   0.00246  -0.00147   0.00099   3.12990
   D51        3.12384  -0.00019   0.00186  -0.00668  -0.00480   3.11904
   D52       -0.01896  -0.00004   0.00388  -0.00316   0.00071  -0.01825
   D53        0.01397  -0.00108  -0.00359  -0.01476  -0.01834  -0.00437
   D54       -3.12137  -0.00107  -0.00502  -0.01308  -0.01810  -3.13948
   D55       -3.12734   0.00076   0.00439   0.00839   0.01289  -3.11445
   D56        0.00776   0.00056   0.00396   0.00513   0.00917   0.01693
   D57       -0.00132   0.00018   0.00032   0.00353   0.00384   0.00252
   D58        3.13378  -0.00002  -0.00012   0.00027   0.00013   3.13391
   D59       -0.00568  -0.00017  -0.00040  -0.00312  -0.00349  -0.00916
   D60        3.11484  -0.00011   0.00094  -0.00387  -0.00292   3.11193
   D61       -3.14078   0.00002   0.00005   0.00009   0.00017  -3.14061
   D62       -0.02027   0.00008   0.00139  -0.00067   0.00075  -0.01952
   D63        0.00420  -0.00004   0.00053  -0.00177  -0.00125   0.00294
   D64       -3.13685   0.00001  -0.00087   0.00131   0.00044  -3.13641
   D65       -3.11587  -0.00005  -0.00072  -0.00111  -0.00182  -3.11769
   D66        0.02627   0.00000  -0.00212   0.00197  -0.00014   0.02614
   D67       -1.05769  -0.00006  -0.01080  -0.02134  -0.03213  -1.08982
   D68        1.01149  -0.00023  -0.01241  -0.01926  -0.03165   0.97984
   D69        3.12546  -0.00013  -0.01248  -0.02034  -0.03282   3.09264
   D70        2.06230  -0.00006  -0.00952  -0.02215  -0.03168   2.03062
   D71       -2.15171  -0.00023  -0.01113  -0.02007  -0.03120  -2.18290
   D72       -0.03773  -0.00014  -0.01120  -0.02115  -0.03236  -0.07010
   D73        0.00432   0.00017  -0.00053   0.00563   0.00511   0.00942
   D74       -3.13605   0.00001  -0.00255   0.00208  -0.00048  -3.13653
   D75       -3.13783   0.00012   0.00086   0.00252   0.00340  -3.13443
   D76        0.00499  -0.00005  -0.00115  -0.00103  -0.00219   0.00280
   D77        1.08682  -0.00015  -0.00768  -0.05855  -0.06621   1.02061
   D78       -1.02424  -0.00108  -0.01358  -0.06068  -0.07426  -1.09849
   D79       -3.11043  -0.00026  -0.01087  -0.05925  -0.07010   3.10265
   D80       -2.05606   0.00002  -0.00555  -0.05481  -0.06036  -2.11642
   D81        2.11607  -0.00091  -0.01144  -0.05694  -0.06840   2.04767
   D82        0.02988  -0.00009  -0.00873  -0.05551  -0.06425  -0.03437
   D83        1.03399  -0.00044  -0.00873  -0.00424  -0.01297   1.02102
   D84        3.11764  -0.00032  -0.00704  -0.00461  -0.01164   3.10600
   D85       -1.08299  -0.00023  -0.00497  -0.00563  -0.01060  -1.09358
   D86       -1.03570   0.00002  -0.00437  -0.01198  -0.01635  -1.05205
   D87        1.04795   0.00014  -0.00269  -0.01234  -0.01502   1.03293
   D88        3.13051   0.00023  -0.00062  -0.01336  -0.01398   3.11653
   D89       -3.10877   0.00016  -0.01064   0.00302  -0.00763  -3.11639
   D90       -1.02511   0.00028  -0.00895   0.00265  -0.00630  -1.03142
   D91        1.05744   0.00037  -0.00688   0.00163  -0.00526   1.05218
   D92        1.08260   0.00000   0.00528   0.01880   0.02409   1.10668
   D93       -3.12147   0.00021   0.00853   0.01693   0.02546  -3.09601
   D94       -1.04054   0.00036   0.01001   0.01702   0.02704  -1.01350
   D95        3.13786  -0.00003   0.00361   0.02476   0.02838  -3.11695
   D96       -1.06620   0.00018   0.00686   0.02289   0.02975  -1.03645
   D97        1.01472   0.00032   0.00834   0.02299   0.03133   1.04605
   D98       -1.07135  -0.00041   0.00925   0.01092   0.02016  -1.05118
   D99        1.00778  -0.00020   0.01249   0.00905   0.02153   1.02931
   D100       3.08870  -0.00005   0.01398   0.00914   0.02312   3.11182
   D101      -1.06968   0.00018   0.00053  -0.00504  -0.00452  -1.07419
   D102       1.06241   0.00018  -0.00203  -0.00290  -0.00493   1.05748
   D103       3.13731   0.00020  -0.00067  -0.00389  -0.00456   3.13275
   D104       3.12409  -0.00021   0.00024  -0.00964  -0.00941   3.11469
   D105      -1.02700  -0.00021  -0.00232  -0.00750  -0.00982  -1.03682
   D106       1.04790  -0.00019  -0.00096  -0.00849  -0.00945   1.03845
   D107       1.04775  -0.00003  -0.00392   0.00194  -0.00198   1.04576
   D108      -3.10335  -0.00003  -0.00648   0.00408  -0.00240  -3.10575
   D109      -1.02845  -0.00000  -0.00512   0.00309  -0.00203  -1.03048
   D110       3.12709  -0.00125   0.00475   0.00506   0.00981   3.13689
   D111      -1.06486  -0.00119   0.00684   0.00348   0.01033  -1.05453
   D112       1.05589  -0.00129   0.00394   0.00501   0.00895   1.06484
   D113      -1.05410   0.00097   0.01259   0.00940   0.02199  -1.03211
   D114       1.03714   0.00103   0.01469   0.00782   0.02251   1.05965
   D115      -3.12530   0.00093   0.01178   0.00936   0.02113  -3.10416
   D116       1.00540   0.00013   0.00875   0.00645   0.01519   1.02060
   D117       3.09665   0.00018   0.01084   0.00487   0.01571   3.11236
   D118      -1.06579   0.00009   0.00793   0.00640   0.01434  -1.05145
   D119       1.09149   0.00096  -0.00034   0.00849   0.00815   1.09964
   D120      -3.09917   0.00102   0.00114   0.00786   0.00900  -3.09017
   D121      -1.02372   0.00073   0.00057   0.00727   0.00784  -1.01588
   D122      -1.01436  -0.00027  -0.00627   0.00487  -0.00140  -1.01576
   D123       1.07816  -0.00020  -0.00479   0.00424  -0.00055   1.07761
   D124      -3.12957  -0.00049  -0.00537   0.00365  -0.00172  -3.13128
   D125      -3.07167  -0.00030  -0.00321   0.00707   0.00386  -3.06782
   D126      -0.97915  -0.00024  -0.00174   0.00645   0.00471  -0.97444
   D127       1.09630  -0.00053  -0.00231   0.00586   0.00354   1.09985
   D128      -1.07046   0.00051   0.00335   0.00115   0.00450  -1.06597
   D129       1.05965   0.00025   0.00102   0.00136   0.00238   1.06203
   D130       3.13707   0.00034   0.00212   0.00103   0.00315   3.14022
   D131       1.03309   0.00020   0.00222   0.00188   0.00409   1.03718
   D132      -3.11999  -0.00006  -0.00011   0.00209   0.00198  -3.11801
   D133      -1.04256   0.00003   0.00099   0.00176   0.00275  -1.03981
   D134       3.11479  -0.00029   0.00139  -0.00027   0.00112   3.11591
   D135      -1.03829  -0.00054  -0.00093  -0.00006  -0.00099  -1.03928
   D136       1.03914  -0.00045   0.00017  -0.00038  -0.00022   1.03892
   D137       0.20713  -0.00028   0.00415  -0.01161  -0.00745   0.19968
   D138       3.05807  -0.00003  -0.00419   0.00208  -0.00211   3.05596
   D139      -2.95635   0.00007   0.00855  -0.00707   0.00146  -2.95489
   D140      -0.10541   0.00032   0.00020   0.00661   0.00680  -0.09861
         Item               Value     Threshold  Converged?
 Maximum Force            0.023018     0.000015     NO 
 RMS     Force            0.002762     0.000010     NO 
 Maximum Displacement     0.324119     0.000060     NO 
 RMS     Displacement     0.074056     0.000040     NO 
 Predicted change in Energy=-1.190755D-03
 GradGradGradGradGradGradGradGradGradGradGradGradGradGradGradGradGradGrad

 Leave Link  103 at Tue Feb 12 10:46:01 2019, MaxMem=  1342177280 cpu:               1.0 elap:               0.1
 (Enter /gpfs/apps/hpc/Apps/Restricted/Gaussian/g16/Rev_B.01-AVX/g16/l202.exe)
 Symmetry turned off by external request.
 Stoichiometry    C22H27N3O2(1+,2)
 Framework group  C1[X(C22H27N3O2)]
 Deg. of freedom   156
 Full point group                 C1      NOp   1
                          Input orientation:                          
 ---------------------------------------------------------------------
 Center     Atomic      Atomic             Coordinates (Angstroms)
 Number     Number       Type             X           Y           Z
 ---------------------------------------------------------------------
      1          6           0       -0.455624    2.738860    0.407264
      2          6           0       -1.867699    2.863589    0.287101
      3          6           0       -2.456322    4.131976    0.160412
      4          6           0       -1.607557    5.227584    0.157895
      5          6           0       -0.206219    5.089524    0.283064
      6          6           0        0.408682    3.846366    0.417832
      7          6           0       -1.406280    0.739534    0.426178
      8          1           0       -3.528610    4.240520    0.062804
      9          1           0       -2.020672    6.223526    0.056790
     10          1           0        0.395137    5.990456    0.261171
     11          7           0       -2.419085    1.608956    0.306237
     12          6           0       -2.979805   -1.181932    0.362561
     13          6           0       -1.608238   -0.686556    0.454345
     14          6           0       -0.570816   -1.599432    0.535156
     15          6           0       -0.818988   -2.982357    0.526942
     16          6           0       -2.167816   -3.434112    0.444739
     17          6           0       -3.258256   -2.597603    0.368530
     18          1           0        0.449509   -1.248205    0.596359
     19          1           0       -2.334410   -4.497795    0.444908
     20          6           0        0.349772   -3.956619    0.578243
     21          6           0       -4.692425   -3.122871    0.288032
     22          8           0       -3.965460   -0.341551    0.266766
     23          1           0       -3.594043    0.621157    0.275230
     24          7           0       -0.207463    1.396391    0.492349
     25          1           0        0.738709    1.038160    0.556264
     26          6           0        1.873607    3.602409    0.556919
     27          6           0        1.209563   -3.743661   -0.690917
     28          1           0        1.573908   -2.717400   -0.760910
     29          1           0        2.074228   -4.411035   -0.652260
     30          1           0        0.637555   -3.971321   -1.593003
     31          6           0        1.211277   -3.657655    1.827018
     32          1           0        0.640682   -3.822708    2.743402
     33          1           0        2.072960   -4.329767    1.831780
     34          1           0        1.584573   -2.632170    1.830186
     35          6           0       -0.096639   -5.423123    0.630929
     36          1           0       -0.686901   -5.634077    1.525936
     37          1           0       -0.681429   -5.700349   -0.249448
     38          1           0        0.787985   -6.062419    0.656764
     39          6           0       -5.368553   -2.610276   -1.003843
     40          1           0       -6.389078   -2.998712   -1.046836
     41          1           0       -5.414866   -1.522712   -1.040128
     42          1           0       -4.830262   -2.966709   -1.885301
     43          6           0       -5.489510   -2.659804    1.529007
     44          1           0       -5.576159   -1.575322    1.575803
     45          1           0       -6.495269   -3.084848    1.485138
     46          1           0       -5.008867   -3.011419    2.445053
     47          6           0       -4.717941   -4.658782    0.255775
     48          1           0       -4.191347   -5.055280   -0.615922
     49          1           0       -4.274009   -5.090020    1.156456
     50          1           0       -5.756351   -4.990177    0.199896
     51          8           0        2.316632    2.441765    0.554195
     52          7           0        2.680405    4.674995    0.668003
     53          1           0        2.326461    5.603855    0.828605
     54          1           0        3.661368    4.510092    0.837866
 ---------------------------------------------------------------------
 Rotational constants (GHZ):           0.2890063           0.1096774           0.0824336
 Leave Link  202 at Tue Feb 12 10:46:01 2019, MaxMem=  1342177280 cpu:               1.0 elap:               0.1
 (Enter /gpfs/apps/hpc/Apps/Restricted/Gaussian/g16/Rev_B.01-AVX/g16/l301.exe)
 Standard basis: 6-31G(d,p) (6D, 7F)
 Ernie: Thresh=  0.10000D-02 Tol=  0.10000D-05 Strict=F.
   540 basis functions,   945 primitive gaussians,   540 cartesian basis functions
    98 alpha electrons       97 beta electrons
       nuclear repulsion energy      2453.7027335621 Hartrees.
 IExCor=  402 DFT=T Ex+Corr=B3LYP ExCW=0 ScaHFX=  0.200000
 ScaDFX=  0.800000  0.720000  1.000000  0.810000 ScalE2=  1.000000  1.000000
 IRadAn=      5 IRanWt=     -1 IRanGd=            0 ICorTp=0 IEmpDi=141
 NAtoms=   54 NActive=   54 NUniq=   54 SFac= 1.00D+00 NAtFMM=   60 NAOKFM=F Big=F
 Integral buffers will be    131072 words long.
 Raffenetti 2 integral format.
 Two-electron integral symmetry is turned off.
 R6Disp:  Grimme-D3(BJ) Dispersion energy=       -0.1193648594 Hartrees.
 Nuclear repulsion after empirical dispersion term =     2453.5833687027 Hartrees.
 ------------------------------------------------------------------------------
 Polarizable Continuum Model (PCM)
 =================================
 Model                : C-PCM.
 Atomic radii         : Bondi.
 Polarization charges : Total charges.
 Charge compensation  : None.
 Solution method      : On-the-fly selection.
 Cavity type          : Scaled VdW (van der Waals Surface) (Alpha=1.100).
 Cavity algorithm     : GePol (No added spheres)
                        Default sphere list used, NSphG=   54.
                        Lebedev-Laikov grids with approx.  5.0 points / Ang**2.
                        Smoothing algorithm: York/Karplus (Gamma=1.0000).
                        Polarization charges: spherical gaussians, with
                                              point-specific exponents (IZeta= 3).
                        Self-potential: point-specific (ISelfS= 7).
                        Self-field    : sphere-specific E.n sum rule (ISelfD= 2).
 1st derivatives      : Analytical E(r).r(x)/FMM algorithm (CHGder, D1EAlg=3).
                        Cavity 1st derivative terms included.
 Solvent              : Dichloromethane, Eps=   8.930000 Eps(inf)=   2.028346
 ------------------------------------------------------------------------------
 GePol: Number of generator spheres                  =      54
 GePol: Total number of spheres                      =      54
 GePol: Number of exposed spheres                    =      54 (100.00%)
 GePol: Number of points                             =    3488
 GePol: Average weight of points                     =       0.12
 GePol: Minimum weight of points                     =   0.60D-11
 GePol: Maximum weight of points                     =    0.21770
 GePol: Number of points with low weight             =     266
 GePol: Fraction of low-weight points (<1% of avg)   =       7.63%
 GePol: Cavity surface area                          =    419.163 Ang**2
 GePol: Cavity volume                                =    404.819 Ang**3
 PCM non-electrostatic energy =         0.0175108134 Hartrees.
 Nuclear repulsion after PCM non-electrostatic terms =     2453.6008795161 Hartrees.
 Leave Link  301 at Tue Feb 12 10:46:02 2019, MaxMem=  1342177280 cpu:               2.0 elap:               0.1
 (Enter /gpfs/apps/hpc/Apps/Restricted/Gaussian/g16/Rev_B.01-AVX/g16/l302.exe)
 NPDir=0 NMtPBC=     1 NCelOv=     1 NCel=       1 NClECP=     1 NCelD=      1
         NCelK=      1 NCelE2=     1 NClLst=     1 CellRange=     0.0.
 One-electron integrals computed using PRISM.
 NBasis=   540 RedAO= T EigKep=  3.06D-04  NBF=   540
 NBsUse=   540 1.00D-06 EigRej= -1.00D+00 NBFU=   540
 Precomputing XC quadrature grid using
 IXCGrd= 4 IRadAn=           5 IRanWt=          -1 IRanGd=           0 AccXCQ= 0.00D+00.
 Generated NRdTot=       0 NPtTot=           0 NUsed=           0 NTot=          32
 NSgBfM=   533   533   533   533   533 MxSgAt=    54 MxSgA2=    54.
 Leave Link  302 at Tue Feb 12 10:46:02 2019, MaxMem=  1342177280 cpu:               9.7 elap:               0.6
 (Enter /gpfs/apps/hpc/Apps/Restricted/Gaussian/g16/Rev_B.01-AVX/g16/l303.exe)
 DipDrv:  MaxL=1.
 Leave Link  303 at Tue Feb 12 10:46:03 2019, MaxMem=  1342177280 cpu:               2.7 elap:               0.2
 (Enter /gpfs/apps/hpc/Apps/Restricted/Gaussian/g16/Rev_B.01-AVX/g16/l401.exe)
 Lowest energy guess from the checkpoint file:  "amide-monoBIP-E0PT.chk"
 B after Tr=     0.005602    0.010271    0.002205
         Rot=    0.999999    0.000546    0.000738   -0.000809 Ang=   0.14 deg.
 Guess basis will be translated and rotated to current coordinates.
 B after Tr=     0.005778    0.007956    0.005650
         Rot=    0.999999    0.000784    0.001035   -0.000715 Ang=   0.17 deg.
 Guess basis will be translated and rotated to current coordinates.
 CkInt1:  FT= 4.49D-01
 Max alpha theta=  1.005 degrees.
 Max  beta theta=  1.565 degrees.
 JPrj=2 DoOrth=T DoCkMO=T.
 Initial guess <Sx>= 0.0000 <Sy>= 0.0000 <Sz>= 0.5000 <S**2>= 0.7619 S= 0.5059
 Leave Link  401 at Tue Feb 12 10:46:04 2019, MaxMem=  1342177280 cpu:              16.5 elap:               1.1
 (Enter /gpfs/apps/hpc/Apps/Restricted/Gaussian/g16/Rev_B.01-AVX/g16/l502.exe)
 Two-electron integral symmetry not used.
 UHF open shell SCF:
 Using DIIS extrapolation, IDIIS=  1040.
 NGot=  1342177280 LenX=  1341580900 LenY=  1341288760
 Requested convergence on RMS density matrix=1.00D-08 within 128 cycles.
 Requested convergence on MAX density matrix=1.00D-06.
 Requested convergence on             energy=1.00D-06.
 No special actions if energy rises.
 Fock matrices will be formed incrementally for  20 cycles.

 Cycle   1  Pass 1  IDiag  1:
 FoFJK:  IHMeth= 1 ICntrl=       0 DoSepK=F KAlg= 0 I1Cent=           0 FoldK=F
 IRaf= 630000000 NMat=       1 IRICut=       1 DoRegI=T DoRafI=F ISym2E= 0 IDoP0=0 IntGTp=1.
 FoFCou: FMM=F IPFlag=           0 FMFlag=      100000 FMFlg1=           0
         NFxFlg=           0 DoJE=F BraDBF=F KetDBF=F FulRan=T
         wScrn=  0.000000 ICntrl=         0 IOpCl=  1 I1Cent=           0 NGrid=           0
         NMat0=    1 NMatS0=      1 NMatT0=    0 NMatD0=    1 NMtDS0=    0 NMtDT0=    0
 Symmetry not used in FoFCou.
 Inv3:  Mode=1 IEnd=    36498432.
 Iteration    1 A*A^-1 deviation from unit magnitude is 7.55D-15 for   3469.
 Iteration    1 A*A^-1 deviation from orthogonality  is 4.58D-15 for   3469   3353.
 Iteration    1 A^-1*A deviation from unit magnitude is 6.66D-15 for   3469.
 Iteration    1 A^-1*A deviation from orthogonality  is 3.53D-15 for   1824   1768.
 E= -1169.34238969031    
 DIIS: error= 2.87D-03 at cycle   1 NSaved=   1.
 NSaved= 1 IEnMin= 1 EnMin= -1169.34238969031     IErMin= 1 ErrMin= 2.87D-03
 ErrMax= 2.87D-03  0.00D+00 EMaxC= 1.00D-01 BMatC= 1.72D-02 BMatP= 1.72D-02
 IDIUse=3 WtCom= 9.71D-01 WtEn= 2.87D-02
 Coeff-Com:  0.100D+01
 Coeff-En:   0.100D+01
 Coeff:      0.100D+01
 Gap=    14.826 Goal=   None    Shift=    0.000
 Gap=    14.251 Goal=   None    Shift=    0.000
 GapD=   14.251 DampG=2.000 DampE=1.000 DampFc=2.0000 IDamp=-1.
 RMSDP=2.04D-04 MaxDP=8.59D-03              OVMax= 2.23D-02

 Cycle   2  Pass 1  IDiag  1:
 RMSU=  2.04D-04    CP:  1.00D+00
