 Entering Gaussian System, Link 0=g16
 Initial command:
 /gpfs/apps/hpc/Apps/Restricted/Gaussian/g16/Rev_B.01-AVX/g16/l1.exe "/gpfs/scratch60/fas/hammes_schiffer/jg2487/c42n01/Gau-281536.inp" -scrdir="/gpfs/scratch60/fas/hammes_schiffer/jg2487/c42n01/"
 Entering Link 1 = /gpfs/apps/hpc/Apps/Restricted/Gaussian/g16/Rev_B.01-AVX/g16/l1.exe PID=    281537.
  
 Copyright (c) 1988-2017, Gaussian, Inc.  All Rights Reserved.
  
 This is part of the Gaussian(R) 16 program.  It is based on
 the Gaussian(R) 09 system (copyright 2009, Gaussian, Inc.),
 the Gaussian(R) 03 system (copyright 2003, Gaussian, Inc.),
 the Gaussian(R) 98 system (copyright 1998, Gaussian, Inc.),
 the Gaussian(R) 94 system (copyright 1995, Gaussian, Inc.),
 the Gaussian 92(TM) system (copyright 1992, Gaussian, Inc.),
 the Gaussian 90(TM) system (copyright 1990, Gaussian, Inc.),
 the Gaussian 88(TM) system (copyright 1988, Gaussian, Inc.),
 the Gaussian 86(TM) system (copyright 1986, Carnegie Mellon
 University), and the Gaussian 82(TM) system (copyright 1983,
 Carnegie Mellon University). Gaussian is a federally registered
 trademark of Gaussian, Inc.
  
 This software contains proprietary and confidential information,
 including trade secrets, belonging to Gaussian, Inc.
  
 This software is provided under written license and may be
 used, copied, transmitted, or stored only in accord with that
 written license.
  
 The following legend is applicable only to US Government
 contracts under FAR:
  
                    RESTRICTED RIGHTS LEGEND
  
 Use, reproduction and disclosure by the US Government is
 subject to restrictions as set forth in subparagraphs (a)
 and (c) of the Commercial Computer Software - Restricted
 Rights clause in FAR 52.227-19.
  
 Gaussian, Inc.
 340 Quinnipiac St., Bldg. 40, Wallingford CT 06492
  
  
 ---------------------------------------------------------------
 Warning -- This program may not be used in any manner that
 competes with the business of Gaussian, Inc. or will provide
 assistance to any competitor of Gaussian, Inc.  The licensee
 of this program is prohibited from giving any competitor of
 Gaussian, Inc. access to this program.  By using this program,
 the user acknowledges that Gaussian, Inc. is engaged in the
 business of creating and licensing software in the field of
 computational chemistry and represents and warrants to the
 licensee that it is not a competitor of Gaussian, Inc. and that
 it will not use this program in any manner prohibited above.
 ---------------------------------------------------------------
  

 Cite this work as:
 Gaussian 16, Revision B.01,
 M. J. Frisch, G. W. Trucks, H. B. Schlegel, G. E. Scuseria, 
 M. A. Robb, J. R. Cheeseman, G. Scalmani, V. Barone, 
 G. A. Petersson, H. Nakatsuji, X. Li, M. Caricato, A. V. Marenich, 
 J. Bloino, B. G. Janesko, R. Gomperts, B. Mennucci, H. P. Hratchian, 
 J. V. Ortiz, A. F. Izmaylov, J. L. Sonnenberg, D. Williams-Young, 
 F. Ding, F. Lipparini, F. Egidi, J. Goings, B. Peng, A. Petrone, 
 T. Henderson, D. Ranasinghe, V. G. Zakrzewski, J. Gao, N. Rega, 
 G. Zheng, W. Liang, M. Hada, M. Ehara, K. Toyota, R. Fukuda, 
 J. Hasegawa, M. Ishida, T. Nakajima, Y. Honda, O. Kitao, H. Nakai, 
 T. Vreven, K. Throssell, J. A. Montgomery, Jr., J. E. Peralta, 
 F. Ogliaro, M. J. Bearpark, J. J. Heyd, E. N. Brothers, K. N. Kudin, 
 V. N. Staroverov, T. A. Keith, R. Kobayashi, J. Normand, 
 K. Raghavachari, A. P. Rendell, J. C. Burant, S. S. Iyengar, 
 J. Tomasi, M. Cossi, J. M. Millam, M. Klene, C. Adamo, R. Cammi, 
 J. W. Ochterski, R. L. Martin, K. Morokuma, O. Farkas, 
 J. B. Foresman, and D. J. Fox, Gaussian, Inc., Wallingford CT, 2016.
 
 ******************************************
 Gaussian 16:  ES64L-G16RevB.01 20-Dec-2017
                12-Feb-2019 
 ******************************************
 %chk=amide-monoBIP-E0PT.chk
 %mem=10GB
 %nprocshared=16
 Will use up to   16 processors via shared memory.
 ----------------------------------------------------------------------
 #p int=acc2e=14 scf=conver=10 opt=(calcfc,tight) freq=internalmodes b3
 lyp/6-31g(d,p) scrf=(cpcm,solvent=dichloromethane,read) nosymm empiric
 aldispersion=gd3bj int=grid=ultrafine
 ----------------------------------------------------------------------
 1/7=10,10=4,18=20,19=15,26=6,38=1,40=2/1,3;
 2/9=110,12=2,15=1,17=6,18=5,40=1/2;
 3/5=1,6=6,7=101,11=2,25=1,27=14,30=1,70=2103,71=2,72=9,74=-5,75=-5,124=41,140=1/1,2,3;
 4//1;
 5/5=2,6=10,38=5,53=9,87=14/2;
 8/6=4,10=90,11=11,87=14/1;
 11/6=1,8=1,9=11,15=111,16=1,31=1,87=14/1,2,10;
 10/6=1,13=1,31=1,87=14/2;
 6/7=2,8=2,9=2,10=2,28=1,87=14/1;
 7/10=1,18=20,25=1,30=1,87=14/1,2,3,16;
 1/7=10,10=4,18=20,19=15,26=6/3(2);
 2/9=110,15=1/2;
 99//99;
 2/9=110,15=1/2;
 3/5=1,6=6,7=101,11=2,25=1,27=14,30=1,70=2105,71=1,72=9,74=-5,75=-5,124=41/1,2,3;
 4/5=5,16=3,69=1/1;
 5/5=2,6=10,38=5,53=9,87=14/2;
 7/30=1,87=14/1,2,3,16;
 1/7=10,18=20,19=15,26=6/3(-5);
 2/9=110,15=1/2;
 6/7=2,8=2,9=2,10=2,19=2,28=1,87=14/1;
 99/9=1/99;
 Leave Link    1 at Tue Feb 12 15:55:09 2019, MaxMem=  1342177280 cpu:               8.5 elap:               0.6
 (Enter /gpfs/apps/hpc/Apps/Restricted/Gaussian/g16/Rev_B.01-AVX/g16/l101.exe)
 --------------------------------------
 Simple amide-monoBIP E0PT optimization
 --------------------------------------
 Symbolic Z-matrix:
 Charge =  1 Multiplicity = 2
 C                    -0.46043   2.73552   0.44632 
 C                    -1.86938   2.86098   0.31912 
 C                    -2.45923   4.12807   0.21213 
 C                    -1.61182   5.2264    0.23978 
 C                    -0.21295   5.08783   0.36666 
 C                     0.40348   3.84109   0.47084 
 C                    -1.40216   0.73696   0.43937 
 H                    -3.53118   4.23901   0.11129 
 H                    -2.02798   6.22321   0.16285 
 H                     0.38515   5.99075   0.38624 
 N                    -2.41829   1.60056   0.32008 
 C                    -2.98182  -1.17836   0.35049 
 C                    -1.61015  -0.69135   0.4564 
 C                    -0.57508  -1.6008    0.54441 
 C                    -0.8251   -2.9862    0.53631 
 C                    -2.16795  -3.43647   0.44223 
 C                    -3.25664  -2.59666   0.3529 
 H                     0.44529  -1.24766   0.61456 
 H                    -2.34015  -4.49989   0.44021 
 C                     0.34458  -3.95344   0.60054 
 C                    -4.68749  -3.12415   0.25374 
 O                    -3.96411  -0.33474   0.24371 
 H                    -3.57484   0.64974   0.24935 
 N                    -0.20671   1.39093   0.52119 
 H                     0.73766   1.03451   0.61838 
 C                     1.86856   3.58919   0.59277 
 C                     1.23136  -3.71279  -0.64446 
 H                     1.5986   -2.68539  -0.68099 
 H                     2.09334  -4.38335  -0.60486 
 H                     0.67709  -3.91621  -1.5635 
 C                     1.17192  -3.66553   1.87407 
 H                     0.5731   -3.82569   2.77332 
 H                     2.02653  -4.34577   1.90307 
 H                     1.55379  -2.64293   1.88896 
 C                    -0.09979  -5.42173   0.62071 
 H                    -0.71756  -5.64563   1.49409 
 H                    -0.65775  -5.68884  -0.28028 
 H                     0.78521  -6.05917   0.66566 
 C                    -5.31826  -2.68134  -1.08627 
 H                    -6.3275   -3.0945   -1.15551 
 H                    -5.38528  -1.59744  -1.16896 
 H                    -4.73623  -3.06142  -1.92932 
 C                    -5.52564  -2.59131   1.4386 
 H                    -5.6152   -1.50635   1.41633 
 H                    -6.5285   -3.02215   1.38675 
 H                    -5.07547  -2.88519   2.3899 
 C                    -4.71416  -4.6602    0.30564 
 H                    -4.1592   -5.1041   -0.52484 
 H                    -4.29883  -5.03995   1.24253 
 H                    -5.75016  -4.99682   0.23544 
 O                     2.29259   2.42583   0.70211 
 N                     2.69305   4.65335   0.58715 
 H                     2.3741    5.59327   0.41983 
 H                     3.68763   4.48726   0.62033 
 
 ITRead=  0  0  0  0  0  0  0  0  0  0  0  0  0  0  0  0  0  0  0  0
 ITRead=  0  0  0  0  0  0  0  0  0  0  0  0  0  0  0  0  0  0  0  0
 ITRead=  0  0  0  0  0  0  0  0  0  0  0  0  0  0
 MicOpt= -1 -1 -1 -1 -1 -1 -1 -1 -1 -1 -1 -1 -1 -1 -1 -1 -1 -1 -1 -1
 MicOpt= -1 -1 -1 -1 -1 -1 -1 -1 -1 -1 -1 -1 -1 -1 -1 -1 -1 -1 -1 -1
 MicOpt= -1 -1 -1 -1 -1 -1 -1 -1 -1 -1 -1 -1 -1 -1
 NAtoms=     54 NQM=       54 NQMF=       0 NMMI=      0 NMMIF=      0
                NMic=       0 NMicF=      0.
                    Isotopes and Nuclear Properties:
 (Nuclear quadrupole moments (NQMom) in fm**2, nuclear magnetic moments (NMagM)
  in nuclear magnetons)

  Atom         1           2           3           4           5           6           7           8           9          10
 IAtWgt=          12          12          12          12          12          12          12           1           1           1
 AtmWgt=  12.0000000  12.0000000  12.0000000  12.0000000  12.0000000  12.0000000  12.0000000   1.0078250   1.0078250   1.0078250
 NucSpn=           0           0           0           0           0           0           0           1           1           1
 AtZEff=  -0.0000000  -0.0000000  -0.0000000  -0.0000000  -0.0000000  -0.0000000  -0.0000000  -0.0000000  -0.0000000  -0.0000000
 NQMom=    0.0000000   0.0000000   0.0000000   0.0000000   0.0000000   0.0000000   0.0000000   0.0000000   0.0000000   0.0000000
 NMagM=    0.0000000   0.0000000   0.0000000   0.0000000   0.0000000   0.0000000   0.0000000   2.7928460   2.7928460   2.7928460
 AtZNuc=   6.0000000   6.0000000   6.0000000   6.0000000   6.0000000   6.0000000   6.0000000   1.0000000   1.0000000   1.0000000

  Atom        11          12          13          14          15          16          17          18          19          20
 IAtWgt=          14          12          12          12          12          12          12           1           1          12
 AtmWgt=  14.0030740  12.0000000  12.0000000  12.0000000  12.0000000  12.0000000  12.0000000   1.0078250   1.0078250  12.0000000
 NucSpn=           2           0           0           0           0           0           0           1           1           0
 AtZEff=  -0.0000000  -0.0000000  -0.0000000  -0.0000000  -0.0000000  -0.0000000  -0.0000000  -0.0000000  -0.0000000  -0.0000000
 NQMom=    2.0440000   0.0000000   0.0000000   0.0000000   0.0000000   0.0000000   0.0000000   0.0000000   0.0000000   0.0000000
 NMagM=    0.4037610   0.0000000   0.0000000   0.0000000   0.0000000   0.0000000   0.0000000   2.7928460   2.7928460   0.0000000
 AtZNuc=   7.0000000   6.0000000   6.0000000   6.0000000   6.0000000   6.0000000   6.0000000   1.0000000   1.0000000   6.0000000

  Atom        21          22          23          24          25          26          27          28          29          30
 IAtWgt=          12          16           1          14           1          12          12           1           1           1
 AtmWgt=  12.0000000  15.9949146   1.0078250  14.0030740   1.0078250  12.0000000  12.0000000   1.0078250   1.0078250   1.0078250
 NucSpn=           0           0           1           2           1           0           0           1           1           1
 AtZEff=  -0.0000000  -0.0000000  -0.0000000  -0.0000000  -0.0000000  -0.0000000  -0.0000000  -0.0000000  -0.0000000  -0.0000000
 NQMom=    0.0000000   0.0000000   0.0000000   2.0440000   0.0000000   0.0000000   0.0000000   0.0000000   0.0000000   0.0000000
 NMagM=    0.0000000   0.0000000   2.7928460   0.4037610   2.7928460   0.0000000   0.0000000   2.7928460   2.7928460   2.7928460
 AtZNuc=   6.0000000   8.0000000   1.0000000   7.0000000   1.0000000   6.0000000   6.0000000   1.0000000   1.0000000   1.0000000

  Atom        31          32          33          34          35          36          37          38          39          40
 IAtWgt=          12           1           1           1          12           1           1           1          12           1
 AtmWgt=  12.0000000   1.0078250   1.0078250   1.0078250  12.0000000   1.0078250   1.0078250   1.0078250  12.0000000   1.0078250
 NucSpn=           0           1           1           1           0           1           1           1           0           1
 AtZEff=  -0.0000000  -0.0000000  -0.0000000  -0.0000000  -0.0000000  -0.0000000  -0.0000000  -0.0000000  -0.0000000  -0.0000000
 NQMom=    0.0000000   0.0000000   0.0000000   0.0000000   0.0000000   0.0000000   0.0000000   0.0000000   0.0000000   0.0000000
 NMagM=    0.0000000   2.7928460   2.7928460   2.7928460   0.0000000   2.7928460   2.7928460   2.7928460   0.0000000   2.7928460
 AtZNuc=   6.0000000   1.0000000   1.0000000   1.0000000   6.0000000   1.0000000   1.0000000   1.0000000   6.0000000   1.0000000

  Atom        41          42          43          44          45          46          47          48          49          50
 IAtWgt=           1           1          12           1           1           1          12           1           1           1
 AtmWgt=   1.0078250   1.0078250  12.0000000   1.0078250   1.0078250   1.0078250  12.0000000   1.0078250   1.0078250   1.0078250
 NucSpn=           1           1           0           1           1           1           0           1           1           1
 AtZEff=  -0.0000000  -0.0000000  -0.0000000  -0.0000000  -0.0000000  -0.0000000  -0.0000000  -0.0000000  -0.0000000  -0.0000000
 NQMom=    0.0000000   0.0000000   0.0000000   0.0000000   0.0000000   0.0000000   0.0000000   0.0000000   0.0000000   0.0000000
 NMagM=    2.7928460   2.7928460   0.0000000   2.7928460   2.7928460   2.7928460   0.0000000   2.7928460   2.7928460   2.7928460
 AtZNuc=   1.0000000   1.0000000   6.0000000   1.0000000   1.0000000   1.0000000   6.0000000   1.0000000   1.0000000   1.0000000

  Atom        51          52          53          54
 IAtWgt=          16          14           1           1
 AtmWgt=  15.9949146  14.0030740   1.0078250   1.0078250
 NucSpn=           0           2           1           1
 AtZEff=  -0.0000000  -0.0000000  -0.0000000  -0.0000000
 NQMom=    0.0000000   2.0440000   0.0000000   0.0000000
 NMagM=    0.0000000   0.4037610   2.7928460   2.7928460
 AtZNuc=   8.0000000   7.0000000   1.0000000   1.0000000
 Leave Link  101 at Tue Feb 12 15:55:09 2019, MaxMem=  1342177280 cpu:               4.0 elap:               0.3
 (Enter /gpfs/apps/hpc/Apps/Restricted/Gaussian/g16/Rev_B.01-AVX/g16/l103.exe)

 GradGradGradGradGradGradGradGradGradGradGradGradGradGradGradGradGradGrad
 Berny optimization.
 Initialization pass.
                           ----------------------------
                           !    Initial Parameters    !
                           ! (Angstroms and Degrees)  !
 --------------------------                            --------------------------
 ! Name  Definition              Value          Derivative Info.                !
 --------------------------------------------------------------------------------
 ! R1    R(1,2)                  1.4202         calculate D2E/DX2 analytically  !
 ! R2    R(1,6)                  1.4033         calculate D2E/DX2 analytically  !
 ! R3    R(1,24)                 1.3704         calculate D2E/DX2 analytically  !
 ! R4    R(2,3)                  1.4017         calculate D2E/DX2 analytically  !
 ! R5    R(2,11)                 1.3748         calculate D2E/DX2 analytically  !
 ! R6    R(3,4)                  1.3875         calculate D2E/DX2 analytically  !
 ! R7    R(3,8)                  1.0824         calculate D2E/DX2 analytically  !
 ! R8    R(4,5)                  1.4114         calculate D2E/DX2 analytically  !
 ! R9    R(4,9)                  1.0829         calculate D2E/DX2 analytically  !
 ! R10   R(5,6)                  1.3947         calculate D2E/DX2 analytically  !
 ! R11   R(5,10)                 1.0832         calculate D2E/DX2 analytically  !
 ! R12   R(6,26)                 1.4916         calculate D2E/DX2 analytically  !
 ! R13   R(7,11)                 1.3389         calculate D2E/DX2 analytically  !
 ! R14   R(7,13)                 1.4435         calculate D2E/DX2 analytically  !
 ! R15   R(7,24)                 1.3651         calculate D2E/DX2 analytically  !
 ! R16   R(12,13)                1.4594         calculate D2E/DX2 analytically  !
 ! R17   R(12,17)                1.4447         calculate D2E/DX2 analytically  !
 ! R18   R(12,22)                1.2992         calculate D2E/DX2 analytically  !
 ! R19   R(13,14)                1.3807         calculate D2E/DX2 analytically  !
 ! R20   R(14,15)                1.4078         calculate D2E/DX2 analytically  !
 ! R21   R(14,18)                1.082          calculate D2E/DX2 analytically  !
 ! R22   R(15,16)                1.4194         calculate D2E/DX2 analytically  !
 ! R23   R(15,20)                1.5191         calculate D2E/DX2 analytically  !
 ! R24   R(16,17)                1.3779         calculate D2E/DX2 analytically  !
 ! R25   R(16,19)                1.0773         calculate D2E/DX2 analytically  !
 ! R26   R(17,21)                1.5282         calculate D2E/DX2 analytically  !
 ! R27   R(20,27)                1.5474         calculate D2E/DX2 analytically  !
 ! R28   R(20,31)                1.5457         calculate D2E/DX2 analytically  !
 ! R29   R(20,35)                1.5342         calculate D2E/DX2 analytically  !
 ! R30   R(21,39)                1.5458         calculate D2E/DX2 analytically  !
 ! R31   R(21,43)                1.5461         calculate D2E/DX2 analytically  !
 ! R32   R(21,47)                1.5372         calculate D2E/DX2 analytically  !
 ! R33   R(22,23)                1.0587         calculate D2E/DX2 analytically  !
 ! R34   R(24,25)                1.0141         calculate D2E/DX2 analytically  !
 ! R35   R(26,51)                1.243          calculate D2E/DX2 analytically  !
 ! R36   R(26,52)                1.3462         calculate D2E/DX2 analytically  !
 ! R37   R(27,28)                1.0917         calculate D2E/DX2 analytically  !
 ! R38   R(27,29)                1.0928         calculate D2E/DX2 analytically  !
 ! R39   R(27,30)                1.0924         calculate D2E/DX2 analytically  !
 ! R40   R(31,32)                1.0922         calculate D2E/DX2 analytically  !
 ! R41   R(31,33)                1.0927         calculate D2E/DX2 analytically  !
 ! R42   R(31,34)                1.0917         calculate D2E/DX2 analytically  !
 ! R43   R(35,36)                1.093          calculate D2E/DX2 analytically  !
 ! R44   R(35,37)                1.0929         calculate D2E/DX2 analytically  !
 ! R45   R(35,38)                1.0916         calculate D2E/DX2 analytically  !
 ! R46   R(39,40)                1.0927         calculate D2E/DX2 analytically  !
 ! R47   R(39,41)                1.0891         calculate D2E/DX2 analytically  !
 ! R48   R(39,42)                1.0927         calculate D2E/DX2 analytically  !
 ! R49   R(43,44)                1.0889         calculate D2E/DX2 analytically  !
 ! R50   R(43,45)                1.0927         calculate D2E/DX2 analytically  !
 ! R51   R(43,46)                1.0927         calculate D2E/DX2 analytically  !
 ! R52   R(47,48)                1.093          calculate D2E/DX2 analytically  !
 ! R53   R(47,49)                1.0929         calculate D2E/DX2 analytically  !
 ! R54   R(47,50)                1.0916         calculate D2E/DX2 analytically  !
 ! R55   R(52,53)                1.0066         calculate D2E/DX2 analytically  !
 ! R56   R(52,54)                1.0089         calculate D2E/DX2 analytically  !
 ! A1    A(2,1,6)              122.8684         calculate D2E/DX2 analytically  !
 ! A2    A(2,1,24)             105.9762         calculate D2E/DX2 analytically  !
 ! A3    A(6,1,24)             131.1543         calculate D2E/DX2 analytically  !
 ! A4    A(1,2,3)              120.2741         calculate D2E/DX2 analytically  !
 ! A5    A(1,2,11)             108.3643         calculate D2E/DX2 analytically  !
 ! A6    A(3,2,11)             131.3607         calculate D2E/DX2 analytically  !
 ! A7    A(2,3,4)              117.1953         calculate D2E/DX2 analytically  !
 ! A8    A(2,3,8)              121.0981         calculate D2E/DX2 analytically  !
 ! A9    A(4,3,8)              121.7065         calculate D2E/DX2 analytically  !
 ! A10   A(3,4,5)              121.9634         calculate D2E/DX2 analytically  !
 ! A11   A(3,4,9)              119.5064         calculate D2E/DX2 analytically  !
 ! A12   A(5,4,9)              118.5301         calculate D2E/DX2 analytically  !
 ! A13   A(4,5,6)              122.176          calculate D2E/DX2 analytically  !
 ! A14   A(4,5,10)             117.8414         calculate D2E/DX2 analytically  !
 ! A15   A(6,5,10)             119.9821         calculate D2E/DX2 analytically  !
 ! A16   A(1,6,5)              115.5221         calculate D2E/DX2 analytically  !
 ! A17   A(1,6,26)             118.2338         calculate D2E/DX2 analytically  !
 ! A18   A(5,6,26)             126.2423         calculate D2E/DX2 analytically  !
 ! A19   A(11,7,13)            122.0016         calculate D2E/DX2 analytically  !
 ! A20   A(11,7,24)            111.1596         calculate D2E/DX2 analytically  !
 ! A21   A(13,7,24)            126.8346         calculate D2E/DX2 analytically  !
 ! A22   A(2,11,7)             106.7626         calculate D2E/DX2 analytically  !
 ! A23   A(13,12,17)           120.4168         calculate D2E/DX2 analytically  !
 ! A24   A(13,12,22)           119.9924         calculate D2E/DX2 analytically  !
 ! A25   A(17,12,22)           119.589          calculate D2E/DX2 analytically  !
 ! A26   A(7,13,12)            117.6953         calculate D2E/DX2 analytically  !
 ! A27   A(7,13,14)            122.992          calculate D2E/DX2 analytically  !
 ! A28   A(12,13,14)           119.3031         calculate D2E/DX2 analytically  !
 ! A29   A(13,14,15)           120.9789         calculate D2E/DX2 analytically  !
 ! A30   A(13,14,18)           119.7438         calculate D2E/DX2 analytically  !
 ! A31   A(15,14,18)           119.2763         calculate D2E/DX2 analytically  !
 ! A32   A(14,15,16)           118.7215         calculate D2E/DX2 analytically  !
 ! A33   A(14,15,20)           119.313          calculate D2E/DX2 analytically  !
 ! A34   A(16,15,20)           121.9544         calculate D2E/DX2 analytically  !
 ! A35   A(15,16,17)           123.9488         calculate D2E/DX2 analytically  !
 ! A36   A(15,16,19)           117.6765         calculate D2E/DX2 analytically  !
 ! A37   A(17,16,19)           118.3747         calculate D2E/DX2 analytically  !
 ! A38   A(12,17,16)           116.6261         calculate D2E/DX2 analytically  !
 ! A39   A(12,17,21)           121.1227         calculate D2E/DX2 analytically  !
 ! A40   A(16,17,21)           122.2505         calculate D2E/DX2 analytically  !
 ! A41   A(15,20,27)           107.952          calculate D2E/DX2 analytically  !
 ! A42   A(15,20,31)           109.1693         calculate D2E/DX2 analytically  !
 ! A43   A(15,20,35)           112.7606         calculate D2E/DX2 analytically  !
 ! A44   A(27,20,31)           109.099          calculate D2E/DX2 analytically  !
 ! A45   A(27,20,35)           108.9906         calculate D2E/DX2 analytically  !
 ! A46   A(31,20,35)           108.8116         calculate D2E/DX2 analytically  !
 ! A47   A(17,21,39)           109.8416         calculate D2E/DX2 analytically  !
 ! A48   A(17,21,43)           109.8095         calculate D2E/DX2 analytically  !
 ! A49   A(17,21,47)           111.0376         calculate D2E/DX2 analytically  !
 ! A50   A(39,21,43)           110.145          calculate D2E/DX2 analytically  !
 ! A51   A(39,21,47)           107.9652         calculate D2E/DX2 analytically  !
 ! A52   A(43,21,47)           108.0059         calculate D2E/DX2 analytically  !
 ! A53   A(12,22,23)           108.9887         calculate D2E/DX2 analytically  !
 ! A54   A(1,24,7)             107.7368         calculate D2E/DX2 analytically  !
 ! A55   A(1,24,25)            121.5018         calculate D2E/DX2 analytically  !
 ! A56   A(7,24,25)            130.7613         calculate D2E/DX2 analytically  !
 ! A57   A(6,26,51)            120.0208         calculate D2E/DX2 analytically  !
 ! A58   A(6,26,52)            117.8876         calculate D2E/DX2 analytically  !
 ! A59   A(51,26,52)           122.0906         calculate D2E/DX2 analytically  !
 ! A60   A(20,27,28)           111.4738         calculate D2E/DX2 analytically  !
 ! A61   A(20,27,29)           109.1145         calculate D2E/DX2 analytically  !
 ! A62   A(20,27,30)           110.9275         calculate D2E/DX2 analytically  !
 ! A63   A(28,27,29)           108.2617         calculate D2E/DX2 analytically  !
 ! A64   A(28,27,30)           108.5296         calculate D2E/DX2 analytically  !
 ! A65   A(29,27,30)           108.4484         calculate D2E/DX2 analytically  !
 ! A66   A(20,31,32)           110.952          calculate D2E/DX2 analytically  !
 ! A67   A(20,31,33)           108.9378         calculate D2E/DX2 analytically  !
 ! A68   A(20,31,34)           111.897          calculate D2E/DX2 analytically  !
 ! A69   A(32,31,33)           108.4018         calculate D2E/DX2 analytically  !
 ! A70   A(32,31,34)           108.5371         calculate D2E/DX2 analytically  !
 ! A71   A(33,31,34)           108.0112         calculate D2E/DX2 analytically  !
 ! A72   A(20,35,36)           111.7331         calculate D2E/DX2 analytically  !
 ! A73   A(20,35,37)           111.7733         calculate D2E/DX2 analytically  !
 ! A74   A(20,35,38)           108.9406         calculate D2E/DX2 analytically  !
 ! A75   A(36,35,37)           108.6713         calculate D2E/DX2 analytically  !
 ! A76   A(36,35,38)           107.8014         calculate D2E/DX2 analytically  !
 ! A77   A(37,35,38)           107.7658         calculate D2E/DX2 analytically  !
 ! A78   A(21,39,40)           108.8738         calculate D2E/DX2 analytically  !
 ! A79   A(21,39,41)           112.0867         calculate D2E/DX2 analytically  !
 ! A80   A(21,39,42)           110.5986         calculate D2E/DX2 analytically  !
 ! A81   A(40,39,41)           108.3398         calculate D2E/DX2 analytically  !
 ! A82   A(40,39,42)           108.153          calculate D2E/DX2 analytically  !
 ! A83   A(41,39,42)           108.6858         calculate D2E/DX2 analytically  !
 ! A84   A(21,43,44)           111.859          calculate D2E/DX2 analytically  !
 ! A85   A(21,43,45)           108.9829         calculate D2E/DX2 analytically  !
 ! A86   A(21,43,46)           110.5587         calculate D2E/DX2 analytically  !
 ! A87   A(44,43,45)           108.4454         calculate D2E/DX2 analytically  !
 ! A88   A(44,43,46)           108.6433         calculate D2E/DX2 analytically  !
 ! A89   A(45,43,46)           108.2623         calculate D2E/DX2 analytically  !
 ! A90   A(21,47,48)           111.7995         calculate D2E/DX2 analytically  !
 ! A91   A(21,47,49)           111.6889         calculate D2E/DX2 analytically  !
 ! A92   A(21,47,50)           108.8116         calculate D2E/DX2 analytically  !
 ! A93   A(48,47,49)           108.4975         calculate D2E/DX2 analytically  !
 ! A94   A(48,47,50)           107.925          calculate D2E/DX2 analytically  !
 ! A95   A(49,47,50)           107.9779         calculate D2E/DX2 analytically  !
 ! A96   A(26,52,53)           123.01           calculate D2E/DX2 analytically  !
 ! A97   A(26,52,54)           118.2614         calculate D2E/DX2 analytically  !
 ! A98   A(53,52,54)           118.1352         calculate D2E/DX2 analytically  !
 ! D1    D(6,1,2,3)             -0.0561         calculate D2E/DX2 analytically  !
 ! D2    D(6,1,2,11)           179.6197         calculate D2E/DX2 analytically  !
 ! D3    D(24,1,2,3)          -179.7173         calculate D2E/DX2 analytically  !
 ! D4    D(24,1,2,11)           -0.0415         calculate D2E/DX2 analytically  !
 ! D5    D(2,1,6,5)              0.2435         calculate D2E/DX2 analytically  !
 ! D6    D(2,1,6,26)          -179.3126         calculate D2E/DX2 analytically  !
 ! D7    D(24,1,6,5)           179.8109         calculate D2E/DX2 analytically  !
 ! D8    D(24,1,6,26)            0.2548         calculate D2E/DX2 analytically  !
 ! D9    D(2,1,24,7)             0.166          calculate D2E/DX2 analytically  !
 ! D10   D(2,1,24,25)         -179.9193         calculate D2E/DX2 analytically  !
 ! D11   D(6,1,24,7)          -179.4561         calculate D2E/DX2 analytically  !
 ! D12   D(6,1,24,25)            0.4586         calculate D2E/DX2 analytically  !
 ! D13   D(1,2,3,4)             -0.1423         calculate D2E/DX2 analytically  !
 ! D14   D(1,2,3,8)            179.7923         calculate D2E/DX2 analytically  !
 ! D15   D(11,2,3,4)          -179.7325         calculate D2E/DX2 analytically  !
 ! D16   D(11,2,3,8)             0.2022         calculate D2E/DX2 analytically  !
 ! D17   D(1,2,11,7)            -0.1012         calculate D2E/DX2 analytically  !
 ! D18   D(3,2,11,7)           179.5258         calculate D2E/DX2 analytically  !
 ! D19   D(2,3,4,5)              0.1457         calculate D2E/DX2 analytically  !
 ! D20   D(2,3,4,9)           -179.8185         calculate D2E/DX2 analytically  !
 ! D21   D(8,3,4,5)           -179.7885         calculate D2E/DX2 analytically  !
 ! D22   D(8,3,4,9)              0.2472         calculate D2E/DX2 analytically  !
 ! D23   D(3,4,5,6)              0.0521         calculate D2E/DX2 analytically  !
 ! D24   D(3,4,5,10)          -179.6795         calculate D2E/DX2 analytically  !
 ! D25   D(9,4,5,6)           -179.9833         calculate D2E/DX2 analytically  !
 ! D26   D(9,4,5,10)             0.2851         calculate D2E/DX2 analytically  !
 ! D27   D(4,5,6,1)             -0.2408         calculate D2E/DX2 analytically  !
 ! D28   D(4,5,6,26)           179.2743         calculate D2E/DX2 analytically  !
 ! D29   D(10,5,6,1)           179.4852         calculate D2E/DX2 analytically  !
 ! D30   D(10,5,6,26)           -0.9997         calculate D2E/DX2 analytically  !
 ! D31   D(1,6,26,51)           -1.7433         calculate D2E/DX2 analytically  !
 ! D32   D(1,6,26,52)          178.6243         calculate D2E/DX2 analytically  !
 ! D33   D(5,6,26,51)          178.7534         calculate D2E/DX2 analytically  !
 ! D34   D(5,6,26,52)           -0.879          calculate D2E/DX2 analytically  !
 ! D35   D(13,7,11,2)         -179.0989         calculate D2E/DX2 analytically  !
 ! D36   D(24,7,11,2)            0.2115         calculate D2E/DX2 analytically  !
 ! D37   D(11,7,13,12)          -0.549          calculate D2E/DX2 analytically  !
 ! D38   D(11,7,13,14)         178.3124         calculate D2E/DX2 analytically  !
 ! D39   D(24,7,13,12)        -179.7456         calculate D2E/DX2 analytically  !
 ! D40   D(24,7,13,14)          -0.8842         calculate D2E/DX2 analytically  !
 ! D41   D(11,7,24,1)           -0.2413         calculate D2E/DX2 analytically  !
 ! D42   D(11,7,24,25)         179.8548         calculate D2E/DX2 analytically  !
 ! D43   D(13,7,24,1)          179.0281         calculate D2E/DX2 analytically  !
 ! D44   D(13,7,24,25)          -0.8759         calculate D2E/DX2 analytically  !
 ! D45   D(17,12,13,7)         179.6043         calculate D2E/DX2 analytically  !
 ! D46   D(17,12,13,14)          0.6994         calculate D2E/DX2 analytically  !
 ! D47   D(22,12,13,7)           0.0916         calculate D2E/DX2 analytically  !
 ! D48   D(22,12,13,14)       -178.8133         calculate D2E/DX2 analytically  !
 ! D49   D(13,12,17,16)         -0.7727         calculate D2E/DX2 analytically  !
 ! D50   D(13,12,17,21)        179.5211         calculate D2E/DX2 analytically  !
 ! D51   D(22,12,17,16)        178.742          calculate D2E/DX2 analytically  !
 ! D52   D(22,12,17,21)         -0.9642         calculate D2E/DX2 analytically  !
 ! D53   D(13,12,22,23)          0.1401         calculate D2E/DX2 analytically  !
 ! D54   D(17,12,22,23)       -179.3766         calculate D2E/DX2 analytically  !
 ! D55   D(7,13,14,15)        -178.9849         calculate D2E/DX2 analytically  !
 ! D56   D(7,13,14,18)           0.6274         calculate D2E/DX2 analytically  !
 ! D57   D(12,13,14,15)         -0.1409         calculate D2E/DX2 analytically  !
 ! D58   D(12,13,14,18)        179.4714         calculate D2E/DX2 analytically  !
 ! D59   D(13,14,15,16)         -0.3096         calculate D2E/DX2 analytically  !
 ! D60   D(13,14,15,20)        178.5021         calculate D2E/DX2 analytically  !
 ! D61   D(18,14,15,16)       -179.9237         calculate D2E/DX2 analytically  !
 ! D62   D(18,14,15,20)         -1.112          calculate D2E/DX2 analytically  !
 ! D63   D(14,15,16,17)          0.2172         calculate D2E/DX2 analytically  !
 ! D64   D(14,15,16,19)       -179.8339         calculate D2E/DX2 analytically  !
 ! D65   D(20,15,16,17)       -178.5616         calculate D2E/DX2 analytically  !
 ! D66   D(20,15,16,19)          1.3873         calculate D2E/DX2 analytically  !
 ! D67   D(14,15,20,27)        -61.0842         calculate D2E/DX2 analytically  !
 ! D68   D(14,15,20,31)         57.3904         calculate D2E/DX2 analytically  !
 ! D69   D(14,15,20,35)        178.4592         calculate D2E/DX2 analytically  !
 ! D70   D(16,15,20,27)        117.6876         calculate D2E/DX2 analytically  !
 ! D71   D(16,15,20,31)       -123.8379         calculate D2E/DX2 analytically  !
 ! D72   D(16,15,20,35)         -2.7691         calculate D2E/DX2 analytically  !
 ! D73   D(15,16,17,12)          0.3227         calculate D2E/DX2 analytically  !
 ! D74   D(15,16,17,21)       -179.9747         calculate D2E/DX2 analytically  !
 ! D75   D(19,16,17,12)       -179.6259         calculate D2E/DX2 analytically  !
 ! D76   D(19,16,17,21)          0.0767         calculate D2E/DX2 analytically  !
 ! D77   D(12,17,21,39)         61.8026         calculate D2E/DX2 analytically  !
 ! D78   D(12,17,21,43)        -59.472          calculate D2E/DX2 analytically  !
 ! D79   D(12,17,21,47)       -178.8497         calculate D2E/DX2 analytically  !
 ! D80   D(16,17,21,39)       -117.8869         calculate D2E/DX2 analytically  !
 ! D81   D(16,17,21,43)        120.8385         calculate D2E/DX2 analytically  !
 ! D82   D(16,17,21,47)          1.4608         calculate D2E/DX2 analytically  !
 ! D83   D(15,20,27,28)         59.114          calculate D2E/DX2 analytically  !
 ! D84   D(15,20,27,29)        178.6331         calculate D2E/DX2 analytically  !
 ! D85   D(15,20,27,30)        -61.9539         calculate D2E/DX2 analytically  !
 ! D86   D(31,20,27,28)        -59.4055         calculate D2E/DX2 analytically  !
 ! D87   D(31,20,27,29)         60.1137         calculate D2E/DX2 analytically  !
 ! D88   D(31,20,27,30)        179.5266         calculate D2E/DX2 analytically  !
 ! D89   D(35,20,27,28)       -178.0939         calculate D2E/DX2 analytically  !
 ! D90   D(35,20,27,29)        -58.5748         calculate D2E/DX2 analytically  !
 ! D91   D(35,20,27,30)         60.8382         calculate D2E/DX2 analytically  !
 ! D92   D(15,20,31,32)         62.201          calculate D2E/DX2 analytically  !
 ! D93   D(15,20,31,33)       -178.5404         calculate D2E/DX2 analytically  !
 ! D94   D(15,20,31,34)        -59.185          calculate D2E/DX2 analytically  !
 ! D95   D(27,20,31,32)        179.9562         calculate D2E/DX2 analytically  !
 ! D96   D(27,20,31,33)        -60.7852         calculate D2E/DX2 analytically  !
 ! D97   D(27,20,31,34)         58.5702         calculate D2E/DX2 analytically  !
 ! D98   D(35,20,31,32)        -61.2436         calculate D2E/DX2 analytically  !
 ! D99   D(35,20,31,33)         58.0151         calculate D2E/DX2 analytically  !
 ! D100  D(35,20,31,34)        177.3704         calculate D2E/DX2 analytically  !
 ! D101  D(15,20,35,36)        -61.0795         calculate D2E/DX2 analytically  !
 ! D102  D(15,20,35,37)         60.9483         calculate D2E/DX2 analytically  !
 ! D103  D(15,20,35,38)        179.9246         calculate D2E/DX2 analytically  !
 ! D104  D(27,20,35,36)        179.0609         calculate D2E/DX2 analytically  !
 ! D105  D(27,20,35,37)        -58.9113         calculate D2E/DX2 analytically  !
 ! D106  D(27,20,35,38)         60.0651         calculate D2E/DX2 analytically  !
 ! D107  D(31,20,35,36)         60.1928         calculate D2E/DX2 analytically  !
 ! D108  D(31,20,35,37)       -177.7794         calculate D2E/DX2 analytically  !
 ! D109  D(31,20,35,38)        -58.8031         calculate D2E/DX2 analytically  !
 ! D110  D(17,21,39,40)        178.1154         calculate D2E/DX2 analytically  !
 ! D111  D(17,21,39,41)        -62.0439         calculate D2E/DX2 analytically  !
 ! D112  D(17,21,39,42)         59.4145         calculate D2E/DX2 analytically  !
 ! D113  D(43,21,39,40)        -60.8116         calculate D2E/DX2 analytically  !
 ! D114  D(43,21,39,41)         59.0291         calculate D2E/DX2 analytically  !
 ! D115  D(43,21,39,42)       -179.5124         calculate D2E/DX2 analytically  !
 ! D116  D(47,21,39,40)         56.9039         calculate D2E/DX2 analytically  !
 ! D117  D(47,21,39,41)        176.7446         calculate D2E/DX2 analytically  !
 ! D118  D(47,21,39,42)        -61.797          calculate D2E/DX2 analytically  !
 ! D119  D(17,21,43,44)         63.3417         calculate D2E/DX2 analytically  !
 ! D120  D(17,21,43,45)       -176.7564         calculate D2E/DX2 analytically  !
 ! D121  D(17,21,43,46)        -57.8784         calculate D2E/DX2 analytically  !
 ! D122  D(39,21,43,44)        -57.7505         calculate D2E/DX2 analytically  !
 ! D123  D(39,21,43,45)         62.1514         calculate D2E/DX2 analytically  !
 ! D124  D(39,21,43,46)       -178.9706         calculate D2E/DX2 analytically  !
 ! D125  D(47,21,43,44)       -175.4407         calculate D2E/DX2 analytically  !
 ! D126  D(47,21,43,45)        -55.5388         calculate D2E/DX2 analytically  !
 ! D127  D(47,21,43,46)         63.3392         calculate D2E/DX2 analytically  !
 ! D128  D(17,21,47,48)        -61.0698         calculate D2E/DX2 analytically  !
 ! D129  D(17,21,47,49)         60.7202         calculate D2E/DX2 analytically  !
 ! D130  D(17,21,47,50)        179.8241         calculate D2E/DX2 analytically  !
 ! D131  D(39,21,47,48)         59.3951         calculate D2E/DX2 analytically  !
 ! D132  D(39,21,47,49)       -178.8149         calculate D2E/DX2 analytically  !
 ! D133  D(39,21,47,50)        -59.711          calculate D2E/DX2 analytically  !
 ! D134  D(43,21,47,48)        178.4787         calculate D2E/DX2 analytically  !
 ! D135  D(43,21,47,49)        -59.7313         calculate D2E/DX2 analytically  !
 ! D136  D(43,21,47,50)         59.3726         calculate D2E/DX2 analytically  !
 ! D137  D(6,26,52,53)          -5.8417         calculate D2E/DX2 analytically  !
 ! D138  D(6,26,52,54)        -176.8346         calculate D2E/DX2 analytically  !
 ! D139  D(51,26,52,53)        174.534          calculate D2E/DX2 analytically  !
 ! D140  D(51,26,52,54)          3.5411         calculate D2E/DX2 analytically  !
 --------------------------------------------------------------------------------
 Trust Radius=3.00D-01 FncErr=5.00D-06 GrdErr=5.00D-06 EigMax=2.50D+02 EigMin=1.00D-04
 Number of steps in this run=    304 maximum allowed number of steps=    324.
 GradGradGradGradGradGradGradGradGradGradGradGradGradGradGradGradGradGrad

 Leave Link  103 at Tue Feb 12 15:55:09 2019, MaxMem=  1342177280 cpu:               0.5 elap:               0.1
 (Enter /gpfs/apps/hpc/Apps/Restricted/Gaussian/g16/Rev_B.01-AVX/g16/l202.exe)
 Symmetry turned off by external request.
 Stoichiometry    C22H27N3O2(1+,2)
 Framework group  C1[X(C22H27N3O2)]
 Deg. of freedom   156
 Full point group                 C1      NOp   1
                          Input orientation:                          
 ---------------------------------------------------------------------
 Center     Atomic      Atomic             Coordinates (Angstroms)
 Number     Number       Type             X           Y           Z
 ---------------------------------------------------------------------
      1          6           0       -0.460429    2.735524    0.446323
      2          6           0       -1.869382    2.860977    0.319118
      3          6           0       -2.459229    4.128065    0.212125
      4          6           0       -1.611824    5.226396    0.239777
      5          6           0       -0.212951    5.087825    0.366657
      6          6           0        0.403475    3.841091    0.470839
      7          6           0       -1.402163    0.736962    0.439368
      8          1           0       -3.531181    4.239010    0.111285
      9          1           0       -2.027979    6.223212    0.162848
     10          1           0        0.385151    5.990745    0.386241
     11          7           0       -2.418292    1.600557    0.320075
     12          6           0       -2.981818   -1.178361    0.350491
     13          6           0       -1.610148   -0.691346    0.456400
     14          6           0       -0.575082   -1.600797    0.544414
     15          6           0       -0.825097   -2.986204    0.536308
     16          6           0       -2.167945   -3.436468    0.442228
     17          6           0       -3.256643   -2.596661    0.352899
     18          1           0        0.445286   -1.247657    0.614561
     19          1           0       -2.340147   -4.499892    0.440207
     20          6           0        0.344584   -3.953435    0.600540
     21          6           0       -4.687489   -3.124153    0.253743
     22          8           0       -3.964111   -0.334742    0.243709
     23          1           0       -3.574839    0.649737    0.249351
     24          7           0       -0.206714    1.390931    0.521192
     25          1           0        0.737656    1.034509    0.618380
     26          6           0        1.868559    3.589189    0.592765
     27          6           0        1.231363   -3.712792   -0.644456
     28          1           0        1.598602   -2.685387   -0.680988
     29          1           0        2.093341   -4.383355   -0.604857
     30          1           0        0.677092   -3.916211   -1.563499
     31          6           0        1.171921   -3.665528    1.874069
     32          1           0        0.573104   -3.825687    2.773318
     33          1           0        2.026535   -4.345768    1.903068
     34          1           0        1.553789   -2.642931    1.888956
     35          6           0       -0.099791   -5.421726    0.620714
     36          1           0       -0.717561   -5.645628    1.494086
     37          1           0       -0.657753   -5.688837   -0.280284
     38          1           0        0.785206   -6.059173    0.665662
     39          6           0       -5.318263   -2.681336   -1.086270
     40          1           0       -6.327499   -3.094501   -1.155508
     41          1           0       -5.385280   -1.597440   -1.168956
     42          1           0       -4.736228   -3.061420   -1.929323
     43          6           0       -5.525635   -2.591310    1.438599
     44          1           0       -5.615198   -1.506346    1.416330
     45          1           0       -6.528499   -3.022147    1.386748
     46          1           0       -5.075468   -2.885194    2.389897
     47          6           0       -4.714164   -4.660198    0.305642
     48          1           0       -4.159200   -5.104099   -0.524841
     49          1           0       -4.298834   -5.039954    1.242534
     50          1           0       -5.750160   -4.996818    0.235438
     51          8           0        2.292593    2.425831    0.702111
     52          7           0        2.693045    4.653346    0.587151
     53          1           0        2.374103    5.593269    0.419829
     54          1           0        3.687634    4.487257    0.620327
 ---------------------------------------------------------------------
 Rotational constants (GHZ):           0.2896889           0.1099664           0.0826359
 Leave Link  202 at Tue Feb 12 15:55:09 2019, MaxMem=  1342177280 cpu:               0.7 elap:               0.1
 (Enter /gpfs/apps/hpc/Apps/Restricted/Gaussian/g16/Rev_B.01-AVX/g16/l301.exe)
 Standard basis: 6-31G(d,p) (6D, 7F)
 Ernie: Thresh=  0.10000D-02 Tol=  0.10000D-05 Strict=F.
   540 basis functions,   945 primitive gaussians,   540 cartesian basis functions
    98 alpha electrons       97 beta electrons
       nuclear repulsion energy      2455.6046813943 Hartrees.
 IExCor=  402 DFT=T Ex+Corr=B3LYP ExCW=0 ScaHFX=  0.200000
 ScaDFX=  0.800000  0.720000  1.000000  0.810000 ScalE2=  1.000000  1.000000
 IRadAn=      5 IRanWt=     -1 IRanGd=            0 ICorTp=0 IEmpDi=141
 NAtoms=   54 NActive=   54 NUniq=   54 SFac= 1.00D+00 NAtFMM=   60 NAOKFM=F Big=F
 Integral buffers will be    131072 words long.
 Raffenetti 2 integral format.
 Two-electron integral symmetry is turned off.
 R6Disp:  Grimme-D3(BJ) Dispersion energy=       -0.1193919687 Hartrees.
 Nuclear repulsion after empirical dispersion term =     2455.4852894256 Hartrees.
 Force inversion solution in PCM.
 Force PCM accuracy= 1.00D-14.
 Using the following non-standard input for PCM:
 radii=bondi
 dis
 rep
 cav
 --- end of non-standard input.
 Force inversion solution in PCM.
 Force PCM accuracy= 1.00D-14.
 ------------------------------------------------------------------------------
 Polarizable Continuum Model (PCM)
 =================================
 Model                : C-PCM.
 Atomic radii         : Bondi.
 Polarization charges : Total charges.
 Charge compensation  : None.
 Solution method      : Matrix inversion.
 Cavity type          : Scaled VdW (van der Waals Surface) (Alpha=1.100).
 Cavity algorithm     : GePol (No added spheres)
                        Default sphere list used, NSphG=   54.
                        Lebedev-Laikov grids with approx.  5.0 points / Ang**2.
                        Smoothing algorithm: York/Karplus (Gamma=1.0000).
                        Polarization charges: spherical gaussians, with
                                              point-specific exponents (IZeta= 3).
                        Self-potential: point-specific (ISelfS= 7).
                        Self-field    : sphere-specific E.n sum rule (ISelfD= 2).
 1st derivatives      : Analytical E(r).r(x)/FMM algorithm (CHGder, D1EAlg=3).
                        Cavity 1st derivative terms included.
 2nd derivatives      : Analytical E(r).r(xy)/FMM algorithm (CHGder, D2EAlg=3).
                        Cavity 2nd derivative terms included.
 Solvent              : Dichloromethane, Eps=   8.930000 Eps(inf)=   2.028346
 ------------------------------------------------------------------------------
 GePol: Number of generator spheres                  =      54
 GePol: Total number of spheres                      =      54
 GePol: Number of exposed spheres                    =      54 (100.00%)
 GePol: Number of points                             =    3489
 GePol: Average weight of points                     =       0.12
 GePol: Minimum weight of points                     =   0.16D-10
 GePol: Maximum weight of points                     =    0.21770
 GePol: Number of points with low weight             =     247
 GePol: Fraction of low-weight points (<1% of avg)   =       7.08%
 GePol: Cavity surface area                          =    418.457 Ang**2
 GePol: Cavity volume                                =    404.248 Ang**3
 PCM non-electrostatic energy =         0.0174688048 Hartrees.
 Nuclear repulsion after PCM non-electrostatic terms =     2455.5027582304 Hartrees.
 Leave Link  301 at Tue Feb 12 15:55:10 2019, MaxMem=  1342177280 cpu:               2.1 elap:               0.2
 (Enter /gpfs/apps/hpc/Apps/Restricted/Gaussian/g16/Rev_B.01-AVX/g16/l302.exe)
 NPDir=0 NMtPBC=     1 NCelOv=     1 NCel=       1 NClECP=     1 NCelD=      1
         NCelK=      1 NCelE2=     1 NClLst=     1 CellRange=     0.0.
 One-electron integrals computed using PRISM.
 NBasis=   540 RedAO= T EigKep=  3.05D-04  NBF=   540
 NBsUse=   540 1.00D-06 EigRej= -1.00D+00 NBFU=   540
 Precomputing XC quadrature grid using
 IXCGrd= 4 IRadAn=           5 IRanWt=          -1 IRanGd=           0 AccXCQ= 1.00D-14.
 Generated NRdTot=       0 NPtTot=           0 NUsed=           0 NTot=          32
 NSgBfM=   535   535   535   535   535 MxSgAt=    54 MxSgA2=    54.
 Leave Link  302 at Tue Feb 12 15:55:10 2019, MaxMem=  1342177280 cpu:              11.2 elap:               0.7
 (Enter /gpfs/apps/hpc/Apps/Restricted/Gaussian/g16/Rev_B.01-AVX/g16/l303.exe)
 DipDrv:  MaxL=1.
 Leave Link  303 at Tue Feb 12 15:55:10 2019, MaxMem=  1342177280 cpu:               1.2 elap:               0.1
 (Enter /gpfs/apps/hpc/Apps/Restricted/Gaussian/g16/Rev_B.01-AVX/g16/l401.exe)
 ExpMin= 1.61D-01 ExpMax= 5.48D+03 ExpMxC= 8.25D+02 IAcc=3 IRadAn=         5 AccDes= 0.00D+00
 Harris functional with IExCor=  402 and IRadAn=       5 diagonalized for initial guess.
 HarFok:  IExCor=  402 AccDes= 0.00D+00 IRadAn=         5 IDoV= 1 UseB2=F ITyADJ=14
 ICtDFT=  3500011 ScaDFX=  1.000000  1.000000  1.000000  1.000000
 FoFCou: FMM=F IPFlag=           0 FMFlag=      100000 FMFlg1=           0
         NFxFlg=           0 DoJE=T BraDBF=F KetDBF=T FulRan=T
         wScrn=  0.000000 ICntrl=       500 IOpCl=  0 I1Cent=   200000004 NGrid=           0
         NMat0=    1 NMatS0=      1 NMatT0=    0 NMatD0=    1 NMtDS0=    0 NMtDT0=    0
 Symmetry not used in FoFCou.
 Harris En= -1169.29757421002    
 JPrj=0 DoOrth=F DoCkMO=F.
 Initial guess <Sx>= 0.0000 <Sy>= 0.0000 <Sz>= 0.5000 <S**2>= 0.7500 S= 0.5000
 Leave Link  401 at Tue Feb 12 15:55:13 2019, MaxMem=  1342177280 cpu:              38.1 elap:               2.4
 (Enter /gpfs/apps/hpc/Apps/Restricted/Gaussian/g16/Rev_B.01-AVX/g16/l502.exe)
 Two-electron integral symmetry not used.
 UHF open shell SCF:
 Using DIIS extrapolation, IDIIS=  1040.
 NGot=  1342177280 LenX=  1341580900 LenY=  1341288760
 Requested convergence on RMS density matrix=1.00D-10 within 128 cycles.
 Requested convergence on MAX density matrix=1.00D-08.
 Requested convergence on             energy=1.00D-08.
 No special actions if energy rises.
 Fock matrices will be formed incrementally for  20 cycles.

 Cycle   1  Pass 1  IDiag  1:
 FoFJK:  IHMeth= 1 ICntrl=       0 DoSepK=F KAlg= 0 I1Cent=           0 FoldK=F
 IRaf= 660000000 NMat=       1 IRICut=       1 DoRegI=T DoRafI=F ISym2E= 0 IDoP0=0 IntGTp=1.
 FoFCou: FMM=F IPFlag=           0 FMFlag=      100000 FMFlg1=           0
         NFxFlg=           0 DoJE=F BraDBF=F KetDBF=F FulRan=T
         wScrn=  0.000000 ICntrl=         0 IOpCl=  1 I1Cent=           0 NGrid=           0
         NMat0=    1 NMatS0=      1 NMatT0=    0 NMatD0=    1 NMtDS0=    0 NMtDT0=    0
 Symmetry not used in FoFCou.
 Inv3:  Mode=1 IEnd=    36519363.
 Iteration    1 A*A^-1 deviation from unit magnitude is 7.99D-15 for   3488.
 Iteration    1 A*A^-1 deviation from orthogonality  is 3.55D-15 for   3464   1534.
 Iteration    1 A^-1*A deviation from unit magnitude is 7.55D-15 for   3488.
 Iteration    1 A^-1*A deviation from orthogonality  is 5.10D-15 for   3476   3386.
 E= -1168.67984262601    
 DIIS: error= 2.72D-02 at cycle   1 NSaved=   1.
 NSaved= 1 IEnMin= 1 EnMin= -1168.67984262601     IErMin= 1 ErrMin= 2.72D-02
 ErrMax= 2.72D-02  0.00D+00 EMaxC= 1.00D-01 BMatC= 2.72D+00 BMatP= 2.72D+00
 IDIUse=3 WtCom= 7.28D-01 WtEn= 2.72D-01
 Coeff-Com:  0.100D+01
 Coeff-En:   0.100D+01
 Coeff:      0.100D+01
 Gap=     0.166 Goal=   None    Shift=    0.000
 Gap=     0.044 Goal=   None    Shift=    0.000
 GapD=    0.044 DampG=0.250 DampE=0.500 DampFc=0.2500 IDamp=-1.
 Damping current iteration by 2.50D-01
 RMSDP=3.70D-03 MaxDP=1.92D-01              OVMax= 3.17D-01

 Cycle   2  Pass 1  IDiag  1:
 RMSU=  9.04D-04    CP:  9.85D-01
 E= -1168.92239544178     Delta-E=       -0.242552815774 Rises=F Damp=T
 DIIS: error= 1.44D-02 at cycle   2 NSaved=   2.
 NSaved= 2 IEnMin= 2 EnMin= -1168.92239544178     IErMin= 2 ErrMin= 1.44D-02
 ErrMax= 1.44D-02  0.00D+00 EMaxC= 1.00D-01 BMatC= 6.71D-01 BMatP= 2.72D+00
 IDIUse=3 WtCom= 8.56D-01 WtEn= 1.44D-01
 Coeff-Com: -0.776D+00 0.178D+01
 Coeff-En:   0.000D+00 0.100D+01
 Coeff:     -0.664D+00 0.166D+01
 Gap=     0.231 Goal=   None    Shift=    0.000
 Gap=     0.104 Goal=   None    Shift=    0.000
 RMSDP=1.34D-03 MaxDP=7.05D-02 DE=-2.43D-01 OVMax= 2.64D-01

 Cycle   3  Pass 1  IDiag  1:
 RMSU=  1.04D-03    CP:  9.54D-01  1.80D+00
 E= -1169.31679793110     Delta-E=       -0.394402489315 Rises=F Damp=F
 DIIS: error= 1.10D-02 at cycle   3 NSaved=   3.
 NSaved= 3 IEnMin= 3 EnMin= -1169.31679793110     IErMin= 3 ErrMin= 1.10D-02
 ErrMax= 1.10D-02  0.00D+00 EMaxC= 1.00D-01 BMatC= 1.41D-01 BMatP= 6.71D-01
 IDIUse=3 WtCom= 8.90D-01 WtEn= 1.10D-01
 Coeff-Com: -0.370D+00 0.825D+00 0.545D+00
 Coeff-En:   0.000D+00 0.000D+00 0.100D+01
 Coeff:     -0.329D+00 0.734D+00 0.595D+00
 Gap=     0.159 Goal=   None    Shift=    0.000
 Gap=     0.057 Goal=   None    Shift=    0.000
 RMSDP=5.53D-04 MaxDP=4.91D-02 DE=-3.94D-01 OVMax= 9.82D-02

 Cycle   4  Pass 1  IDiag  1:
 RMSU=  4.13D-04    CP:  9.58D-01  1.94D+00  6.71D-01
 E= -1169.33950785917     Delta-E=       -0.022709928072 Rises=F Damp=F
 DIIS: error= 7.29D-03 at cycle   4 NSaved=   4.
 NSaved= 4 IEnMin= 4 EnMin= -1169.33950785917     IErMin= 4 ErrMin= 7.29D-03
 ErrMax= 7.29D-03  0.00D+00 EMaxC= 1.00D-01 BMatC= 5.02D-02 BMatP= 1.41D-01
 IDIUse=3 WtCom= 9.27D-01 WtEn= 7.29D-02
 Coeff-Com: -0.533D-01 0.131D+00 0.370D+00 0.552D+00
 Coeff-En:   0.000D+00 0.000D+00 0.262D+00 0.738D+00
 Coeff:     -0.494D-01 0.122D+00 0.362D+00 0.566D+00
 Gap=     0.161 Goal=   None    Shift=    0.000
 Gap=     0.058 Goal=   None    Shift=    0.000
 RMSDP=2.40D-04 MaxDP=2.48D-02 DE=-2.27D-02 OVMax= 3.60D-02

 Cycle   5  Pass 1  IDiag  1:
 RMSU=  1.32D-04    CP:  9.57D-01  1.87D+00  7.76D-01  6.29D-01
 E= -1169.34943801100     Delta-E=       -0.009930151828 Rises=F Damp=F
 DIIS: error= 2.06D-03 at cycle   5 NSaved=   5.
 NSaved= 5 IEnMin= 5 EnMin= -1169.34943801100     IErMin= 5 ErrMin= 2.06D-03
 ErrMax= 2.06D-03  0.00D+00 EMaxC= 1.00D-01 BMatC= 3.46D-03 BMatP= 5.02D-02
 IDIUse=3 WtCom= 9.79D-01 WtEn= 2.06D-02
 Coeff-Com:  0.974D-03 0.466D-02 0.157D+00 0.316D+00 0.521D+00
 Coeff-En:   0.000D+00 0.000D+00 0.000D+00 0.000D+00 0.100D+01
 Coeff:      0.954D-03 0.456D-02 0.153D+00 0.310D+00 0.531D+00
 Gap=     0.160 Goal=   None    Shift=    0.000
 Gap=     0.060 Goal=   None    Shift=    0.000
 RMSDP=7.28D-05 MaxDP=5.95D-03 DE=-9.93D-03 OVMax= 1.37D-02

 Cycle   6  Pass 1  IDiag  1:
 RMSU=  4.96D-05    CP:  9.57D-01  1.88D+00  7.79D-01  6.82D-01  6.39D-01
 E= -1169.35023084520     Delta-E=       -0.000792834202 Rises=F Damp=F
 DIIS: error= 5.36D-04 at cycle   6 NSaved=   6.
 NSaved= 6 IEnMin= 6 EnMin= -1169.35023084520     IErMin= 6 ErrMin= 5.36D-04
 ErrMax= 5.36D-04  0.00D+00 EMaxC= 1.00D-01 BMatC= 3.15D-04 BMatP= 3.46D-03
 IDIUse=3 WtCom= 9.95D-01 WtEn= 5.36D-03
 Coeff-Com:  0.445D-02-0.724D-02 0.525D-01 0.114D+00 0.286D+00 0.550D+00
 Coeff-En:   0.000D+00 0.000D+00 0.000D+00 0.000D+00 0.000D+00 0.100D+01
 Coeff:      0.443D-02-0.720D-02 0.522D-01 0.114D+00 0.284D+00 0.553D+00
 Gap=     0.160 Goal=   None    Shift=    0.000
 Gap=     0.061 Goal=   None    Shift=    0.000
 RMSDP=2.51D-05 MaxDP=1.91D-03 DE=-7.93D-04 OVMax= 1.14D-02

 Cycle   7  Pass 1  IDiag  1:
 RMSU=  2.12D-05    CP:  9.57D-01  1.88D+00  7.81D-01  6.88D-01  7.37D-01
                    CP:  9.79D-01
 E= -1169.35033073559     Delta-E=       -0.000099890396 Rises=F Damp=F
 DIIS: error= 1.77D-04 at cycle   7 NSaved=   7.
 NSaved= 7 IEnMin= 7 EnMin= -1169.35033073559     IErMin= 7 ErrMin= 1.77D-04
 ErrMax= 1.77D-04  0.00D+00 EMaxC= 1.00D-01 BMatC= 5.88D-05 BMatP= 3.15D-04
 IDIUse=3 WtCom= 9.98D-01 WtEn= 1.77D-03
 Coeff-Com:  0.226D-02-0.493D-02-0.597D-02-0.116D-01 0.358D-01 0.295D+00
 Coeff-Com:  0.689D+00
 Coeff-En:   0.000D+00 0.000D+00 0.000D+00 0.000D+00 0.000D+00 0.000D+00
 Coeff-En:   0.100D+01
 Coeff:      0.225D-02-0.492D-02-0.596D-02-0.116D-01 0.358D-01 0.295D+00
 Coeff:      0.690D+00
 Gap=     0.160 Goal=   None    Shift=    0.000
 Gap=     0.061 Goal=   None    Shift=    0.000
 RMSDP=1.69D-05 MaxDP=1.64D-03 DE=-9.99D-05 OVMax= 9.18D-03

 Cycle   8  Pass 1  IDiag  1:
 RMSU=  9.29D-06    CP:  9.57D-01  1.88D+00  7.82D-01  6.96D-01  7.84D-01
                    CP:  1.22D+00  1.12D+00
 E= -1169.35036862065     Delta-E=       -0.000037885055 Rises=F Damp=F
 DIIS: error= 1.59D-04 at cycle   8 NSaved=   8.
 NSaved= 8 IEnMin= 8 EnMin= -1169.35036862065     IErMin= 8 ErrMin= 1.59D-04
 ErrMax= 1.59D-04  0.00D+00 EMaxC= 1.00D-01 BMatC= 1.09D-05 BMatP= 5.88D-05
 IDIUse=3 WtCom= 9.98D-01 WtEn= 1.59D-03
 Coeff-Com: -0.524D-03 0.680D-03-0.166D-01-0.398D-01-0.749D-01-0.390D-01
 Coeff-Com:  0.221D+00 0.950D+00
 Coeff-En:   0.000D+00 0.000D+00 0.000D+00 0.000D+00 0.000D+00 0.000D+00
 Coeff-En:   0.000D+00 0.100D+01
 Coeff:     -0.523D-03 0.679D-03-0.166D-01-0.397D-01-0.748D-01-0.389D-01
 Coeff:      0.220D+00 0.950D+00
 Gap=     0.160 Goal=   None    Shift=    0.000
 Gap=     0.062 Goal=   None    Shift=    0.000
 RMSDP=1.60D-05 MaxDP=1.32D-03 DE=-3.79D-05 OVMax= 1.05D-02

 Cycle   9  Pass 1  IDiag  1:
 RMSU=  5.32D-06    CP:  9.57D-01  1.88D+00  7.82D-01  7.03D-01  8.30D-01
                    CP:  1.42D+00  1.52D+00  1.40D+00
 E= -1169.35038622923     Delta-E=       -0.000017608577 Rises=F Damp=F
 DIIS: error= 5.48D-05 at cycle   9 NSaved=   9.
 NSaved= 9 IEnMin= 9 EnMin= -1169.35038622923     IErMin= 9 ErrMin= 5.48D-05
 ErrMax= 5.48D-05  0.00D+00 EMaxC= 1.00D-01 BMatC= 6.48D-06 BMatP= 1.09D-05
 IDIUse=1 WtCom= 1.00D+00 WtEn= 0.00D+00
 Coeff-Com: -0.608D-03 0.126D-02-0.802D-02-0.205D-01-0.561D-01-0.106D+00
 Coeff-Com: -0.111D+00 0.581D+00 0.720D+00
 Coeff:     -0.608D-03 0.126D-02-0.802D-02-0.205D-01-0.561D-01-0.106D+00
 Coeff:     -0.111D+00 0.581D+00 0.720D+00
 Gap=     0.160 Goal=   None    Shift=    0.000
 Gap=     0.062 Goal=   None    Shift=    0.000
 RMSDP=9.08D-06 MaxDP=1.13D-03 DE=-1.76D-05 OVMax= 5.56D-03

 Cycle  10  Pass 1  IDiag  1:
 RMSU=  2.85D-06    CP:  9.57D-01  1.88D+00  7.82D-01  7.06D-01  8.51D-01
                    CP:  1.53D+00  1.72D+00  1.78D+00  1.04D+00
 E= -1169.35039207407     Delta-E=       -0.000005844839 Rises=F Damp=F
 DIIS: error= 3.03D-05 at cycle  10 NSaved=  10.
 NSaved=10 IEnMin=10 EnMin= -1169.35039207407     IErMin=10 ErrMin= 3.03D-05
 ErrMax= 3.03D-05  0.00D+00 EMaxC= 1.00D-01 BMatC= 1.16D-06 BMatP= 6.48D-06
 IDIUse=1 WtCom= 1.00D+00 WtEn= 0.00D+00
 Coeff-Com: -0.882D-05 0.184D-03 0.735D-03 0.844D-03-0.643D-02-0.298D-01
 Coeff-Com: -0.106D+00 0.265D-01 0.307D+00 0.806D+00
 Coeff:     -0.882D-05 0.184D-03 0.735D-03 0.844D-03-0.643D-02-0.298D-01
 Coeff:     -0.106D+00 0.265D-01 0.307D+00 0.806D+00
 Gap=     0.160 Goal=   None    Shift=    0.000
 Gap=     0.062 Goal=   None    Shift=    0.000
 RMSDP=4.08D-06 MaxDP=5.26D-04 DE=-5.84D-06 OVMax= 2.24D-03

 Cycle  11  Pass 1  IDiag  1:
 RMSU=  1.50D-06    CP:  9.57D-01  1.88D+00  7.82D-01  7.07D-01  8.58D-01
                    CP:  1.58D+00  1.80D+00  1.96D+00  1.33D+00  1.22D+00
 E= -1169.35039332087     Delta-E=       -0.000001246802 Rises=F Damp=F
 DIIS: error= 1.57D-05 at cycle  11 NSaved=  11.
 NSaved=11 IEnMin=11 EnMin= -1169.35039332087     IErMin=11 ErrMin= 1.57D-05
 ErrMax= 1.57D-05  0.00D+00 EMaxC= 1.00D-01 BMatC= 3.76D-07 BMatP= 1.16D-06
 IDIUse=1 WtCom= 1.00D+00 WtEn= 0.00D+00
 Coeff-Com:  0.223D-03-0.341D-03 0.382D-02 0.887D-02 0.193D-01 0.297D-01
 Coeff-Com: -0.166D-01-0.205D+00-0.931D-01 0.430D+00 0.824D+00
 Coeff:      0.223D-03-0.341D-03 0.382D-02 0.887D-02 0.193D-01 0.297D-01
 Coeff:     -0.166D-01-0.205D+00-0.931D-01 0.430D+00 0.824D+00
 Gap=     0.160 Goal=   None    Shift=    0.000
 Gap=     0.062 Goal=   None    Shift=    0.000
 RMSDP=2.29D-06 MaxDP=3.75D-04 DE=-1.25D-06 OVMax= 1.17D-03

 Cycle  12  Pass 1  IDiag  1:
 RMSU=  6.94D-07    CP:  9.57D-01  1.88D+00  7.82D-01  7.08D-01  8.62D-01
                    CP:  1.59D+00  1.85D+00  2.06D+00  1.49D+00  1.65D+00
                    CP:  1.08D+00
 E= -1169.35039373029     Delta-E=       -0.000000409421 Rises=F Damp=F
 DIIS: error= 6.78D-06 at cycle  12 NSaved=  12.
 NSaved=12 IEnMin=12 EnMin= -1169.35039373029     IErMin=12 ErrMin= 6.78D-06
 ErrMax= 6.78D-06  0.00D+00 EMaxC= 1.00D-01 BMatC= 7.95D-08 BMatP= 3.76D-07
 IDIUse=1 WtCom= 1.00D+00 WtEn= 0.00D+00
 Coeff-Com:  0.510D-04-0.124D-03 0.781D-03 0.189D-02 0.627D-02 0.146D-01
 Coeff-Com:  0.142D-01-0.574D-01-0.842D-01-0.103D+00 0.291D+00 0.916D+00
 Coeff:      0.510D-04-0.124D-03 0.781D-03 0.189D-02 0.627D-02 0.146D-01
 Coeff:      0.142D-01-0.574D-01-0.842D-01-0.103D+00 0.291D+00 0.916D+00
 Gap=     0.160 Goal=   None    Shift=    0.000
 Gap=     0.062 Goal=   None    Shift=    0.000
 RMSDP=1.13D-06 MaxDP=1.51D-04 DE=-4.09D-07 OVMax= 5.30D-04

 Cycle  13  Pass 1  IDiag  1:
 RMSU=  3.63D-07    CP:  9.57D-01  1.88D+00  7.82D-01  7.08D-01  8.63D-01
                    CP:  1.60D+00  1.86D+00  2.10D+00  1.57D+00  1.82D+00
                    CP:  1.37D+00  1.17D+00
 E= -1169.35039381033     Delta-E=       -0.000000080038 Rises=F Damp=F
 DIIS: error= 5.12D-06 at cycle  13 NSaved=  13.
 NSaved=13 IEnMin=13 EnMin= -1169.35039381033     IErMin=13 ErrMin= 5.12D-06
 ErrMax= 5.12D-06  0.00D+00 EMaxC= 1.00D-01 BMatC= 3.13D-08 BMatP= 7.95D-08
 IDIUse=1 WtCom= 1.00D+00 WtEn= 0.00D+00
 Coeff-Com: -0.961D-05-0.137D-04-0.211D-03-0.499D-03 0.337D-03 0.411D-02
 Coeff-Com:  0.118D-01 0.447D-02-0.340D-01-0.156D+00 0.446D-01 0.555D+00
 Coeff-Com:  0.570D+00
 Coeff:     -0.961D-05-0.137D-04-0.211D-03-0.499D-03 0.337D-03 0.411D-02
 Coeff:      0.118D-01 0.447D-02-0.340D-01-0.156D+00 0.446D-01 0.555D+00
 Coeff:      0.570D+00
 Gap=     0.160 Goal=   None    Shift=    0.000
 Gap=     0.062 Goal=   None    Shift=    0.000
 RMSDP=3.58D-07 MaxDP=4.89D-05 DE=-8.00D-08 OVMax= 1.44D-04

 Cycle  14  Pass 1  IDiag  1:
 RMSU=  1.84D-07    CP:  9.57D-01  1.88D+00  7.82D-01  7.08D-01  8.64D-01
                    CP:  1.60D+00  1.87D+00  2.11D+00  1.59D+00  1.86D+00
                    CP:  1.43D+00  1.40D+00  8.68D-01
 E= -1169.35039382593     Delta-E=       -0.000000015603 Rises=F Damp=F
 DIIS: error= 2.40D-06 at cycle  14 NSaved=  14.
 NSaved=14 IEnMin=14 EnMin= -1169.35039382593     IErMin=14 ErrMin= 2.40D-06
 ErrMax= 2.40D-06  0.00D+00 EMaxC= 1.00D-01 BMatC= 5.20D-09 BMatP= 3.13D-08
 IDIUse=1 WtCom= 1.00D+00 WtEn= 0.00D+00
 Coeff-Com: -0.153D-04 0.253D-04-0.286D-03-0.734D-03-0.154D-02-0.162D-02
 Coeff-Com:  0.115D-02 0.179D-01 0.666D-02-0.514D-01-0.418D-01-0.459D-03
 Coeff-Com:  0.264D+00 0.808D+00
 Coeff:     -0.153D-04 0.253D-04-0.286D-03-0.734D-03-0.154D-02-0.162D-02
 Coeff:      0.115D-02 0.179D-01 0.666D-02-0.514D-01-0.418D-01-0.459D-03
 Coeff:      0.264D+00 0.808D+00
 Gap=     0.160 Goal=   None    Shift=    0.000
 Gap=     0.062 Goal=   None    Shift=    0.000
 RMSDP=2.22D-07 MaxDP=2.18D-05 DE=-1.56D-08 OVMax= 1.11D-04

 Cycle  15  Pass 1  IDiag  1:
 RMSU=  9.72D-08    CP:  9.57D-01  1.88D+00  7.82D-01  7.08D-01  8.64D-01
                    CP:  1.61D+00  1.87D+00  2.11D+00  1.60D+00  1.88D+00
                    CP:  1.48D+00  1.50D+00  1.14D+00  1.11D+00
 E= -1169.35039383036     Delta-E=       -0.000000004436 Rises=F Damp=F
 DIIS: error= 9.42D-07 at cycle  15 NSaved=  15.
 NSaved=15 IEnMin=15 EnMin= -1169.35039383036     IErMin=15 ErrMin= 9.42D-07
 ErrMax= 9.42D-07  0.00D+00 EMaxC= 1.00D-01 BMatC= 1.88D-09 BMatP= 5.20D-09
 IDIUse=1 WtCom= 1.00D+00 WtEn= 0.00D+00
 Coeff-Com: -0.313D-05 0.133D-04-0.124D-03-0.339D-03-0.111D-02-0.204D-02
 Coeff-Com: -0.283D-02 0.983D-02 0.129D-01 0.875D-02-0.320D-01-0.150D+00
 Coeff-Com: -0.301D-02 0.462D+00 0.698D+00
 Coeff:     -0.313D-05 0.133D-04-0.124D-03-0.339D-03-0.111D-02-0.204D-02
 Coeff:     -0.283D-02 0.983D-02 0.129D-01 0.875D-02-0.320D-01-0.150D+00
 Coeff:     -0.301D-02 0.462D+00 0.698D+00
 Gap=     0.160 Goal=   None    Shift=    0.000
 Gap=     0.062 Goal=   None    Shift=    0.000
 RMSDP=1.35D-07 MaxDP=1.18D-05 DE=-4.44D-09 OVMax= 6.76D-05

 Cycle  16  Pass 1  IDiag  1:
 RMSU=  4.95D-08    CP:  9.57D-01  1.88D+00  7.82D-01  7.08D-01  8.64D-01
                    CP:  1.61D+00  1.87D+00  2.12D+00  1.60D+00  1.89D+00
                    CP:  1.50D+00  1.56D+00  1.27D+00  1.42D+00  1.07D+00
 E= -1169.35039383192     Delta-E=       -0.000000001557 Rises=F Damp=F
 DIIS: error= 5.66D-07 at cycle  16 NSaved=  16.
 NSaved=16 IEnMin=16 EnMin= -1169.35039383192     IErMin=16 ErrMin= 5.66D-07
 ErrMax= 5.66D-07  0.00D+00 EMaxC= 1.00D-01 BMatC= 3.66D-10 BMatP= 1.88D-09
 IDIUse=1 WtCom= 1.00D+00 WtEn= 0.00D+00
 Coeff-Com:  0.905D-05-0.975D-05 0.607D-04 0.127D-03 0.703D-04-0.156D-03
 Coeff-Com: -0.171D-02-0.159D-02 0.354D-02 0.218D-01 0.245D-02-0.715D-01
 Coeff-Com: -0.106D+00-0.629D-01 0.318D+00 0.897D+00
 Coeff:      0.905D-05-0.975D-05 0.607D-04 0.127D-03 0.703D-04-0.156D-03
 Coeff:     -0.171D-02-0.159D-02 0.354D-02 0.218D-01 0.245D-02-0.715D-01
 Coeff:     -0.106D+00-0.629D-01 0.318D+00 0.897D+00
 Gap=     0.160 Goal=   None    Shift=    0.000
 Gap=     0.062 Goal=   None    Shift=    0.000
 RMSDP=8.70D-08 MaxDP=8.83D-06 DE=-1.56D-09 OVMax= 4.72D-05

 Cycle  17  Pass 1  IDiag  1:
 RMSU=  2.55D-08    CP:  9.57D-01  1.88D+00  7.82D-01  7.08D-01  8.64D-01
                    CP:  1.61D+00  1.87D+00  2.12D+00  1.61D+00  1.90D+00
                    CP:  1.50D+00  1.60D+00  1.37D+00  1.61D+00  1.48D+00
                    CP:  1.22D+00
 E= -1169.35039383244     Delta-E=       -0.000000000515 Rises=F Damp=F
 DIIS: error= 1.82D-07 at cycle  17 NSaved=  17.
 NSaved=17 IEnMin=17 EnMin= -1169.35039383244     IErMin=17 ErrMin= 1.82D-07
 ErrMax= 1.82D-07  0.00D+00 EMaxC= 1.00D-01 BMatC= 1.02D-10 BMatP= 3.66D-10
 IDIUse=1 WtCom= 1.00D+00 WtEn= 0.00D+00
 Coeff-Com:  0.511D-05-0.717D-05 0.448D-04 0.102D-03 0.191D-03 0.237D-03
 Coeff-Com: -0.353D-03-0.223D-02-0.813D-03 0.730D-02 0.591D-02-0.610D-02
 Coeff-Com: -0.504D-01-0.100D+00 0.448D-02 0.408D+00 0.734D+00
 Coeff:      0.511D-05-0.717D-05 0.448D-04 0.102D-03 0.191D-03 0.237D-03
 Coeff:     -0.353D-03-0.223D-02-0.813D-03 0.730D-02 0.591D-02-0.610D-02
 Coeff:     -0.504D-01-0.100D+00 0.448D-02 0.408D+00 0.734D+00
 Gap=     0.160 Goal=   None    Shift=    0.000
 Gap=     0.062 Goal=   None    Shift=    0.000
 RMSDP=4.16D-08 MaxDP=3.05D-06 DE=-5.15D-10 OVMax= 2.28D-05

 Cycle  18  Pass 1  IDiag  1:
 RMSU=  1.25D-08    CP:  9.57D-01  1.88D+00  7.82D-01  7.09D-01  8.64D-01
                    CP:  1.61D+00  1.87D+00  2.12D+00  1.61D+00  1.90D+00
                    CP:  1.51D+00  1.61D+00  1.40D+00  1.68D+00  1.61D+00
                    CP:  1.49D+00  1.17D+00
 E= -1169.35039383255     Delta-E=       -0.000000000114 Rises=F Damp=F
 DIIS: error= 1.31D-07 at cycle  18 NSaved=  18.
 NSaved=18 IEnMin=18 EnMin= -1169.35039383255     IErMin=18 ErrMin= 1.31D-07
 ErrMax= 1.31D-07  0.00D+00 EMaxC= 1.00D-01 BMatC= 3.16D-11 BMatP= 1.02D-10
 IDIUse=1 WtCom= 1.00D+00 WtEn= 0.00D+00
 Coeff-Com:  0.107D-07-0.899D-06 0.395D-05 0.803D-05 0.732D-04 0.196D-03
 Coeff-Com:  0.418D-03-0.384D-03-0.167D-02-0.358D-02 0.261D-02 0.226D-01
 Coeff-Com:  0.719D-02-0.285D-01-0.123D+00-0.673D-01 0.405D+00 0.786D+00
 Coeff:      0.107D-07-0.899D-06 0.395D-05 0.803D-05 0.732D-04 0.196D-03
 Coeff:      0.418D-03-0.384D-03-0.167D-02-0.358D-02 0.261D-02 0.226D-01
 Coeff:      0.719D-02-0.285D-01-0.123D+00-0.673D-01 0.405D+00 0.786D+00
 Gap=     0.160 Goal=   None    Shift=    0.000
 Gap=     0.062 Goal=   None    Shift=    0.000
 RMSDP=2.06D-08 MaxDP=1.89D-06 DE=-1.14D-10 OVMax= 9.80D-06

 Cycle  19  Pass 1  IDiag  1:
 RMSU=  7.45D-09    CP:  9.57D-01  1.88D+00  7.82D-01  7.09D-01  8.64D-01
                    CP:  1.61D+00  1.87D+00  2.12D+00  1.61D+00  1.90D+00
                    CP:  1.51D+00  1.62D+00  1.41D+00  1.72D+00  1.70D+00
                    CP:  1.66D+00  1.53D+00  1.11D+00
 E= -1169.35039383256     Delta-E=       -0.000000000008 Rises=F Damp=F
 DIIS: error= 7.16D-08 at cycle  19 NSaved=  19.
 NSaved=19 IEnMin=19 EnMin= -1169.35039383256     IErMin=19 ErrMin= 7.16D-08
 ErrMax= 7.16D-08  0.00D+00 EMaxC= 1.00D-01 BMatC= 1.18D-11 BMatP= 3.16D-11
 IDIUse=1 WtCom= 1.00D+00 WtEn= 0.00D+00
 Coeff-Com: -0.107D-05 0.967D-06-0.772D-05-0.186D-04 0.119D-05 0.637D-04
 Coeff-Com:  0.310D-03 0.325D-03-0.860D-03-0.376D-02-0.154D-03 0.139D-01
 Coeff-Com:  0.157D-01 0.118D-01-0.755D-01-0.136D+00 0.168D-01 0.456D+00
 Coeff-Com:  0.702D+00
 Coeff:     -0.107D-05 0.967D-06-0.772D-05-0.186D-04 0.119D-05 0.637D-04
 Coeff:      0.310D-03 0.325D-03-0.860D-03-0.376D-02-0.154D-03 0.139D-01
 Coeff:      0.157D-01 0.118D-01-0.755D-01-0.136D+00 0.168D-01 0.456D+00
 Coeff:      0.702D+00
 Gap=     0.160 Goal=   None    Shift=    0.000
 Gap=     0.062 Goal=   None    Shift=    0.000
 RMSDP=1.10D-08 MaxDP=1.03D-06 DE=-7.73D-12 OVMax= 5.56D-06

 Cycle  20  Pass 1  IDiag  1:
 RMSU=  3.72D-09    CP:  9.57D-01  1.88D+00  7.82D-01  7.09D-01  8.64D-01
                    CP:  1.61D+00  1.87D+00  2.12D+00  1.61D+00  1.90D+00
                    CP:  1.51D+00  1.62D+00  1.42D+00  1.74D+00  1.74D+00
                    CP:  1.75D+00  1.70D+00  1.41D+00  1.01D+00
 E= -1169.35039383258     Delta-E=       -0.000000000019 Rises=F Damp=F
 DIIS: error= 3.95D-08 at cycle  20 NSaved=  20.
 NSaved=20 IEnMin=20 EnMin= -1169.35039383258     IErMin=20 ErrMin= 3.95D-08
 ErrMax= 3.95D-08  0.00D+00 EMaxC= 1.00D-01 BMatC= 2.55D-12 BMatP= 1.18D-11
 IDIUse=1 WtCom= 1.00D+00 WtEn= 0.00D+00
 Coeff-Com: -0.720D-06 0.107D-05-0.638D-05-0.150D-04-0.313D-04-0.487D-04
 Coeff-Com: -0.706D-05 0.351D-03 0.155D-03-0.524D-03-0.105D-02-0.119D-02
 Coeff-Com:  0.497D-02 0.171D-01 0.252D-02-0.419D-01-0.137D+00-0.645D-01
 Coeff-Com:  0.350D+00 0.871D+00
 Coeff:     -0.720D-06 0.107D-05-0.638D-05-0.150D-04-0.313D-04-0.487D-04
 Coeff:     -0.706D-05 0.351D-03 0.155D-03-0.524D-03-0.105D-02-0.119D-02
 Coeff:      0.497D-02 0.171D-01 0.252D-02-0.419D-01-0.137D+00-0.645D-01
 Coeff:      0.350D+00 0.871D+00
 Gap=     0.160 Goal=   None    Shift=    0.000
 Gap=     0.062 Goal=   None    Shift=    0.000
 RMSDP=6.69D-09 MaxDP=7.15D-07 DE=-1.91D-11 OVMax= 2.64D-06

 Cycle  21  Pass 1  IDiag  1:
 Restarting incremental Fock formation.
 E= -1169.35039383259     Delta-E=       -0.000000000012 Rises=F Damp=F
 DIIS: error= 1.80D-08 at cycle  21 NSaved=  20.
 NSaved=20 IEnMin=20 EnMin= -1169.35039383259     IErMin=20 ErrMin= 1.80D-08
 ErrMax= 1.80D-08  0.00D+00 EMaxC= 1.00D-01 BMatC= 6.33D-13 BMatP= 2.55D-12
 IDIUse=1 WtCom= 1.00D+00 WtEn= 0.00D+00
 Coeff-Com:  0.791D-07-0.847D-06-0.166D-05-0.107D-04-0.298D-04-0.667D-04
 Coeff-Com:  0.817D-04 0.235D-03 0.602D-03-0.401D-03-0.342D-02-0.943D-03
 Coeff-Com:  0.594D-02 0.172D-01 0.104D-01-0.631D-01-0.122D+00 0.450D-01
 Coeff-Com:  0.425D+00 0.686D+00
 Coeff:      0.791D-07-0.847D-06-0.166D-05-0.107D-04-0.298D-04-0.667D-04
 Coeff:      0.817D-04 0.235D-03 0.602D-03-0.401D-03-0.342D-02-0.943D-03
 Coeff:      0.594D-02 0.172D-01 0.104D-01-0.631D-01-0.122D+00 0.450D-01
 Coeff:      0.425D+00 0.686D+00
 Gap=     0.160 Goal=   None    Shift=    0.000
 Gap=     0.062 Goal=   None    Shift=    0.000
 RMSDP=1.85D-09 MaxDP=1.94D-07 DE=-1.18D-11 OVMax= 5.86D-07

 Cycle  22  Pass 1  IDiag  1:
 RMSU=  1.85D-09    CP:  1.00D+00
 E= -1169.35039383258     Delta-E=        0.000000000006 Rises=F Damp=F
 DIIS: error= 8.83D-09 at cycle  22 NSaved=  20.
 NSaved=20 IEnMin=19 EnMin= -1169.35039383259     IErMin=20 ErrMin= 8.83D-09
 ErrMax= 8.83D-09  0.00D+00 EMaxC= 1.00D-01 BMatC= 1.45D-13 BMatP= 6.33D-13
 IDIUse=1 WtCom= 1.00D+00 WtEn= 0.00D+00
 Coeff-Com:  0.355D-06 0.124D-05 0.109D-05-0.295D-05-0.927D-05-0.378D-04
 Coeff-Com:  0.347D-04 0.210D-03 0.365D-04-0.523D-03-0.103D-02-0.225D-02
 Coeff-Com:  0.411D-02 0.102D-01 0.144D-01-0.331D-01-0.799D-01-0.766D-01
 Coeff-Com:  0.308D+00 0.856D+00
 Coeff:      0.355D-06 0.124D-05 0.109D-05-0.295D-05-0.927D-05-0.378D-04
 Coeff:      0.347D-04 0.210D-03 0.365D-04-0.523D-03-0.103D-02-0.225D-02
 Coeff:      0.411D-02 0.102D-01 0.144D-01-0.331D-01-0.799D-01-0.766D-01
 Coeff:      0.308D+00 0.856D+00
 Gap=     0.160 Goal=   None    Shift=    0.000
 Gap=     0.062 Goal=   None    Shift=    0.000
 RMSDP=1.25D-09 MaxDP=1.59D-07 DE= 6.37D-12 OVMax= 4.22D-07

 Cycle  23  Pass 1  IDiag  1:
 RMSU=  1.10D-09    CP:  1.00D+00  1.32D+00
 E= -1169.35039383259     Delta-E=       -0.000000000005 Rises=F Damp=F
 DIIS: error= 4.41D-09 at cycle  23 NSaved=  20.
 NSaved=20 IEnMin=18 EnMin= -1169.35039383259     IErMin=20 ErrMin= 4.41D-09
 ErrMax= 4.41D-09  0.00D+00 EMaxC= 1.00D-01 BMatC= 3.26D-14 BMatP= 1.45D-13
 IDIUse=1 WtCom= 1.00D+00 WtEn= 0.00D+00
 Coeff-Com:  0.192D-06 0.199D-06-0.347D-06 0.314D-05-0.149D-04 0.737D-05
 Coeff-Com:  0.414D-04 0.249D-04 0.729D-04-0.432D-03-0.150D-02-0.936D-04
 Coeff-Com:  0.329D-02 0.160D-01 0.815D-02-0.318D-01-0.914D-01-0.847D-01
 Coeff-Com:  0.215D+00 0.968D+00
 Coeff:      0.192D-06 0.199D-06-0.347D-06 0.314D-05-0.149D-04 0.737D-05
 Coeff:      0.414D-04 0.249D-04 0.729D-04-0.432D-03-0.150D-02-0.936D-04
 Coeff:      0.329D-02 0.160D-01 0.815D-02-0.318D-01-0.914D-01-0.847D-01
 Coeff:      0.215D+00 0.968D+00
 Gap=     0.160 Goal=   None    Shift=    0.000
 Gap=     0.062 Goal=   None    Shift=    0.000
 RMSDP=7.42D-10 MaxDP=6.34D-08 DE=-4.55D-12 OVMax= 3.41D-07

 Cycle  24  Pass 1  IDiag  1:
 RMSU=  4.74D-10    CP:  1.00D+00  1.63D+00  1.02D+00
 E= -1169.35039383257     Delta-E=        0.000000000020 Rises=F Damp=F
 DIIS: error= 2.39D-09 at cycle  24 NSaved=  20.
 NSaved=20 IEnMin=17 EnMin= -1169.35039383259     IErMin=20 ErrMin= 2.39D-09
 ErrMax= 2.39D-09  0.00D+00 EMaxC= 1.00D-01 BMatC= 9.79D-15 BMatP= 3.26D-14
 IDIUse=1 WtCom= 1.00D+00 WtEn= 0.00D+00
 Coeff-Com:  0.747D-06 0.262D-05 0.966D-05-0.604D-05-0.233D-04-0.865D-04
 Coeff-Com:  0.165D-04 0.422D-03 0.265D-03-0.229D-03-0.200D-02-0.295D-02
 Coeff-Com:  0.441D-02 0.152D-01 0.597D-02-0.214D-01-0.130D+00-0.890D-01
 Coeff-Com:  0.434D+00 0.785D+00
 Coeff:      0.747D-06 0.262D-05 0.966D-05-0.604D-05-0.233D-04-0.865D-04
 Coeff:      0.165D-04 0.422D-03 0.265D-03-0.229D-03-0.200D-02-0.295D-02
 Coeff:      0.441D-02 0.152D-01 0.597D-02-0.214D-01-0.130D+00-0.890D-01
 Coeff:      0.434D+00 0.785D+00
 Gap=     0.160 Goal=   None    Shift=    0.000
 Gap=     0.062 Goal=   None    Shift=    0.000
 RMSDP=2.78D-10 MaxDP=3.83D-08 DE= 1.96D-11 OVMax= 9.28D-08

 Cycle  25  Pass 1  IDiag  1:
 RMSU=  1.62D-10    CP:  1.00D+00  1.70D+00  1.15D+00  1.21D+00
 E= -1169.35039383260     Delta-E=       -0.000000000027 Rises=F Damp=F
 DIIS: error= 1.13D-09 at cycle  25 NSaved=  20.
 NSaved=20 IEnMin=20 EnMin= -1169.35039383260     IErMin=20 ErrMin= 1.13D-09
 ErrMax= 1.13D-09  0.00D+00 EMaxC= 1.00D-01 BMatC= 2.75D-15 BMatP= 9.79D-15
 IDIUse=1 WtCom= 1.00D+00 WtEn= 0.00D+00
 Large coefficients: NSaved= 20 BigCof=    0.00 CofMax=   10.00 Det=-7.94D-15
 Inversion failed.  Reducing to 19 matrices.
 Large coefficients: NSaved= 19 BigCof=    0.00 CofMax=   10.00 Det=-7.95D-15
 Inversion failed.  Reducing to 18 matrices.
 Large coefficients: NSaved= 18 BigCof=    0.00 CofMax=   10.00 Det=-8.42D-15
 Inversion failed.  Reducing to 17 matrices.
 Large coefficients: NSaved= 17 BigCof=    0.00 CofMax=   10.00 Det=-8.56D-15
 Inversion failed.  Reducing to 16 matrices.
 Large coefficients: NSaved= 16 BigCof=    0.00 CofMax=   10.00 Det=-8.91D-15
 Inversion failed.  Reducing to 15 matrices.
 Coeff-Com: -0.814D-05-0.742D-06 0.872D-04 0.293D-03-0.195D-03-0.145D-02
 Coeff-Com: -0.305D-02 0.146D-02 0.826D-02 0.210D-01-0.320D-01-0.766D-01
 Coeff-Com: -0.361D-01 0.357D+00 0.761D+00
 Coeff:     -0.814D-05-0.742D-06 0.872D-04 0.293D-03-0.195D-03-0.145D-02
 Coeff:     -0.305D-02 0.146D-02 0.826D-02 0.210D-01-0.320D-01-0.766D-01
 Coeff:     -0.361D-01 0.357D+00 0.761D+00
 Gap=     0.160 Goal=   None    Shift=    0.000
 Gap=     0.062 Goal=   None    Shift=    0.000
 RMSDP=1.20D-10 MaxDP=1.89D-08 DE=-2.73D-11 OVMax= 5.21D-08

 Cycle  26  Pass 1  IDiag  1:
 RMSU=  8.99D-11    CP:  1.00D+00  1.73D+00  1.18D+00  1.32D+00  1.11D+00
 E= -1169.35039383258     Delta-E=        0.000000000015 Rises=F Damp=F
 DIIS: error= 9.06D-10 at cycle  26 NSaved=  16.
 NSaved=16 IEnMin=15 EnMin= -1169.35039383260     IErMin=16 ErrMin= 9.06D-10
 ErrMax= 9.06D-10  0.00D+00 EMaxC= 1.00D-01 BMatC= 1.52D-15 BMatP= 2.75D-15
 IDIUse=1 WtCom= 1.00D+00 WtEn= 0.00D+00
 Large coefficients: NSaved= 16 BigCof=    0.00 CofMax=   10.00 Det=-4.07D-15
 Inversion failed.  Reducing to 15 matrices.
 Coeff-Com: -0.107D-04 0.306D-04 0.158D-03 0.400D-04-0.365D-03-0.175D-02
 Coeff-Com:  0.132D-04 0.320D-02 0.134D-01-0.470D-02-0.448D-01-0.116D+00
 Coeff-Com:  0.987D-01 0.490D+00 0.562D+00
 Coeff:     -0.107D-04 0.306D-04 0.158D-03 0.400D-04-0.365D-03-0.175D-02
 Coeff:      0.132D-04 0.320D-02 0.134D-01-0.470D-02-0.448D-01-0.116D+00
 Coeff:      0.987D-01 0.490D+00 0.562D+00
 Gap=     0.160 Goal=   None    Shift=    0.000
 Gap=     0.062 Goal=   None    Shift=    0.000
 RMSDP=1.01D-10 MaxDP=9.63D-09 DE= 1.50D-11 OVMax= 4.72D-08

 Cycle  27  Pass 1  IDiag  1:
 RMSU=  3.33D-11    CP:  1.00D+00  1.76D+00  1.18D+00  1.46D+00  1.27D+00
                    CP:  7.33D-01
 E= -1169.35039383259     Delta-E=       -0.000000000012 Rises=F Damp=F
 DIIS: error= 3.75D-10 at cycle  27 NSaved=  16.
 NSaved=16 IEnMin=14 EnMin= -1169.35039383260     IErMin=16 ErrMin= 3.75D-10
 ErrMax= 3.75D-10  0.00D+00 EMaxC= 1.00D-01 BMatC= 1.67D-16 BMatP= 1.52D-15
 IDIUse=1 WtCom= 1.00D+00 WtEn= 0.00D+00
 Large coefficients: NSaved= 16 BigCof=    0.00 CofMax=   10.00 Det=-9.73D-16
 Inversion failed.  Reducing to 15 matrices.
 Coeff-Com:  0.285D-06 0.236D-04 0.959D-05-0.126D-04-0.675D-03-0.104D-03
 Coeff-Com:  0.832D-03 0.590D-02 0.356D-02-0.139D-01-0.629D-01-0.836D-02
 Coeff-Com:  0.162D+00 0.269D+00 0.645D+00
 Coeff:      0.285D-06 0.236D-04 0.959D-05-0.126D-04-0.675D-03-0.104D-03
 Coeff:      0.832D-03 0.590D-02 0.356D-02-0.139D-01-0.629D-01-0.836D-02
 Coeff:      0.162D+00 0.269D+00 0.645D+00
 Gap=     0.160 Goal=   None    Shift=    0.000
 Gap=     0.062 Goal=   None    Shift=    0.000
 RMSDP=2.69D-11 MaxDP=2.70D-09 DE=-1.23D-11 OVMax= 6.47D-09

 Error on total polarization charges =  0.03723
 SCF Done:  E(UB3LYP) =  -1169.35039383     A.U. after   27 cycles
            NFock= 27  Conv=0.27D-10     -V/T= 2.0096
 <Sx>= 0.0000 <Sy>= 0.0000 <Sz>= 0.5000 <S**2>= 0.7622 S= 0.5061
 <L.S>=  0.00000000000    
 KE= 1.158275530474D+03 PE=-7.601111103885D+03 EE= 2.817982421348D+03
 Annihilation of the first spin contaminant:
 S**2 before annihilation     0.7622,   after     0.7501
 Leave Link  502 at Tue Feb 12 15:59:27 2019, MaxMem=  1342177280 cpu:            4014.7 elap:             253.8
 (Enter /gpfs/apps/hpc/Apps/Restricted/Gaussian/g16/Rev_B.01-AVX/g16/l801.exe)
 DoSCS=F DFT=T ScalE2(SS,OS)=  1.000000  1.000000
 Range of M.O.s used for correlation:     1   540
 NBasis=   540 NAE=    98 NBE=    97 NFC=     0 NFV=     0
 NROrb=    540 NOA=    98 NOB=    97 NVA=   442 NVB=   443

 **** Warning!!: The smallest beta delta epsilon is  0.61900341D-01

 Leave Link  801 at Tue Feb 12 15:59:27 2019, MaxMem=  1342177280 cpu:               1.0 elap:               0.1
 (Enter /gpfs/apps/hpc/Apps/Restricted/Gaussian/g16/Rev_B.01-AVX/g16/l1101.exe)
 Using compressed storage, NAtomX=    54.
 Will process     55 centers per pass.
 R6Disp: Adding Grimme-D3(BJ) dispersion energy 1st derivatives to the gradient.
 Leave Link 1101 at Tue Feb 12 15:59:29 2019, MaxMem=  1342177280 cpu:              22.8 elap:               1.5
 (Enter /gpfs/apps/hpc/Apps/Restricted/Gaussian/g16/Rev_B.01-AVX/g16/l1102.exe)
 Symmetrizing basis deriv contribution to polar:
 IMax=3 JMax=2 DiffMx= 0.00D+00
 Leave Link 1102 at Tue Feb 12 15:59:29 2019, MaxMem=  1342177280 cpu:               0.9 elap:               0.1
 (Enter /gpfs/apps/hpc/Apps/Restricted/Gaussian/g16/Rev_B.01-AVX/g16/l1110.exe)
 Forming Gx(P) for the SCF density, NAtomX=    54.
 Integral derivatives from FoFJK, PRISM(SPDF).
 Do as many integral derivatives as possible in FoFJK.
 G2DrvN: MDV=    1342172824.
 G2DrvN: will do    55 centers at a time, making    1 passes.
 Calling FoFCou, ICntrl=  3107 FMM=F I1Cent=   0 AccDes= 1.00D-14.
 FoFJK:  IHMeth= 1 ICntrl=    3107 DoSepK=F KAlg= 0 I1Cent=           0 FoldK=F
 IRaf=         0 NMat=       1 IRICut=       1 DoRegI=T DoRafI=F ISym2E= 0 IDoP0=0 IntGTp=1.
 FoFCou: FMM=F IPFlag=           0 FMFlag=      100000 FMFlg1=           0
         NFxFlg=           0 DoJE=F BraDBF=F KetDBF=F FulRan=T
         wScrn=  0.000000 ICntrl=      3107 IOpCl=  1 I1Cent=           0 NGrid=           0
         NMat0=    1 NMatS0=      1 NMatT0=    0 NMatD0=    1 NMtDS0=    0 NMtDT0=    0
 Symmetry not used in FoFCou.
 NEqPCM:  Using equilibrium solvation (IEInf=0, Eps=   8.9300, EpsInf=   2.0283)
 G2PCM: DoFxE=T DoFxN=T DoGrad=T DoDP/DQ/DG/TGxP=FFFF NFrqRd=   0 IEInf=0 SqF1=F DoCFld=F IF1Alg=4.
 GePol: Maximum number of non-zero 1st derivatives   =     200
 End of G2Drv F.D. properties file   721 does not exist.
 End of G2Drv F.D. properties file   722 does not exist.
 End of G2Drv F.D. properties file   788 does not exist.
 Leave Link 1110 at Tue Feb 12 16:07:34 2019, MaxMem=  1342177280 cpu:            7669.9 elap:             484.7
 (Enter /gpfs/apps/hpc/Apps/Restricted/Gaussian/g16/Rev_B.01-AVX/g16/l1002.exe)
 Minotr:  UHF open shell wavefunction.
          IDoAtm=11111111111111111111111111111111111111111111111111
          IDoAtm=1111
 NEqPCM:  Using equilibrium solvation (IEInf=0, Eps=   8.9300, EpsInf=   2.0283)
          Direct CPHF calculation.
          Differentiating once with respect to nuclear coordinates.
          Requested convergence is 1.0D-08 RMS, and 1.0D-07 maximum.
          Secondary convergence is 1.0D-12 RMS, and 1.0D-12 maximum.
          NewPWx=T KeepS1=F KeepF1=F KeepIn=T MapXYZ=F SortEE=F KeepMc=T.
        16520 words used for storage of precomputed grid.
 Two-electron integral symmetry not used.
          MDV=    1342177280 using IRadAn=       1.
          Solving linear equations simultaneously, MaxMat=     384.
 FoF2E skips out because all densities are zero.
 CalDSu exits because no D1Ps are significant.
 FoFJK:  IHMeth= 1 ICntrl=       0 DoSepK=F KAlg= 0 I1Cent=           0 FoldK=F
 IRaf= 660000000 NMat=      96 IRICut=     240 DoRegI=T DoRafI=T ISym2E= 0 IDoP0=0 IntGTp=1.
          There are   165 degrees of freedom in the 1st order CPHF.  IDoFFX=6 NUNeed=     0.
    159 vectors produced by pass  0 Test12= 8.63D-14 1.00D-09 XBig12= 4.40D-01 2.57D-01.
 AX will form    80 AO Fock derivatives at one time.
    159 vectors produced by pass  1 Test12= 8.63D-14 1.00D-09 XBig12= 1.14D-01 7.01D-02.
    159 vectors produced by pass  2 Test12= 8.63D-14 1.00D-09 XBig12= 2.15D-03 9.45D-03.
    159 vectors produced by pass  3 Test12= 8.63D-14 1.00D-09 XBig12= 1.23D-05 8.22D-04.
    159 vectors produced by pass  4 Test12= 8.63D-14 1.00D-09 XBig12= 4.55D-08 2.49D-05.
