 Entering Gaussian System, Link 0=g16
 Initial command:
 /gpfs/apps/hpc/Apps/Restricted/Gaussian/g16/Rev_B.01-AVX/g16/l1.exe "/gpfs/scratch60/fas/hammes_schiffer/jg2487/c42n04/Gau-304624.inp" -scrdir="/gpfs/scratch60/fas/hammes_schiffer/jg2487/c42n04/"
 Entering Link 1 = /gpfs/apps/hpc/Apps/Restricted/Gaussian/g16/Rev_B.01-AVX/g16/l1.exe PID=    304625.
  
 Copyright (c) 1988-2017, Gaussian, Inc.  All Rights Reserved.
  
 This is part of the Gaussian(R) 16 program.  It is based on
 the Gaussian(R) 09 system (copyright 2009, Gaussian, Inc.),
 the Gaussian(R) 03 system (copyright 2003, Gaussian, Inc.),
 the Gaussian(R) 98 system (copyright 1998, Gaussian, Inc.),
 the Gaussian(R) 94 system (copyright 1995, Gaussian, Inc.),
 the Gaussian 92(TM) system (copyright 1992, Gaussian, Inc.),
 the Gaussian 90(TM) system (copyright 1990, Gaussian, Inc.),
 the Gaussian 88(TM) system (copyright 1988, Gaussian, Inc.),
 the Gaussian 86(TM) system (copyright 1986, Carnegie Mellon
 University), and the Gaussian 82(TM) system (copyright 1983,
 Carnegie Mellon University). Gaussian is a federally registered
 trademark of Gaussian, Inc.
  
 This software contains proprietary and confidential information,
 including trade secrets, belonging to Gaussian, Inc.
  
 This software is provided under written license and may be
 used, copied, transmitted, or stored only in accord with that
 written license.
  
 The following legend is applicable only to US Government
 contracts under FAR:
  
                    RESTRICTED RIGHTS LEGEND
  
 Use, reproduction and disclosure by the US Government is
 subject to restrictions as set forth in subparagraphs (a)
 and (c) of the Commercial Computer Software - Restricted
 Rights clause in FAR 52.227-19.
  
 Gaussian, Inc.
 340 Quinnipiac St., Bldg. 40, Wallingford CT 06492
  
  
 ---------------------------------------------------------------
 Warning -- This program may not be used in any manner that
 competes with the business of Gaussian, Inc. or will provide
 assistance to any competitor of Gaussian, Inc.  The licensee
 of this program is prohibited from giving any competitor of
 Gaussian, Inc. access to this program.  By using this program,
 the user acknowledges that Gaussian, Inc. is engaged in the
 business of creating and licensing software in the field of
 computational chemistry and represents and warrants to the
 licensee that it is not a competitor of Gaussian, Inc. and that
 it will not use this program in any manner prohibited above.
 ---------------------------------------------------------------
  

 Cite this work as:
 Gaussian 16, Revision B.01,
 M. J. Frisch, G. W. Trucks, H. B. Schlegel, G. E. Scuseria, 
 M. A. Robb, J. R. Cheeseman, G. Scalmani, V. Barone, 
 G. A. Petersson, H. Nakatsuji, X. Li, M. Caricato, A. V. Marenich, 
 J. Bloino, B. G. Janesko, R. Gomperts, B. Mennucci, H. P. Hratchian, 
 J. V. Ortiz, A. F. Izmaylov, J. L. Sonnenberg, D. Williams-Young, 
 F. Ding, F. Lipparini, F. Egidi, J. Goings, B. Peng, A. Petrone, 
 T. Henderson, D. Ranasinghe, V. G. Zakrzewski, J. Gao, N. Rega, 
 G. Zheng, W. Liang, M. Hada, M. Ehara, K. Toyota, R. Fukuda, 
 J. Hasegawa, M. Ishida, T. Nakajima, Y. Honda, O. Kitao, H. Nakai, 
 T. Vreven, K. Throssell, J. A. Montgomery, Jr., J. E. Peralta, 
 F. Ogliaro, M. J. Bearpark, J. J. Heyd, E. N. Brothers, K. N. Kudin, 
 V. N. Staroverov, T. A. Keith, R. Kobayashi, J. Normand, 
 K. Raghavachari, A. P. Rendell, J. C. Burant, S. S. Iyengar, 
 J. Tomasi, M. Cossi, J. M. Millam, M. Klene, C. Adamo, R. Cammi, 
 J. W. Ochterski, R. L. Martin, K. Morokuma, O. Farkas, 
 J. B. Foresman, and D. J. Fox, Gaussian, Inc., Wallingford CT, 2016.
 
 ******************************************
 Gaussian 16:  ES64L-G16RevB.01 20-Dec-2017
                12-Feb-2019 
 ******************************************
 %chk=amide-monoBIP-E1PT.chk
 %mem=10GB
 %nprocshared=16
 Will use up to   16 processors via shared memory.
 ----------------------------------------------------------------
 #p freq(ReadFC,InternalModes) Geom(AllCheck) NoSymm scale=0.9631
 ----------------------------------------------------------------
 1/18=20,29=7,38=1,114=963100/1,3;
 2/9=110,12=2,15=1,40=1/2;
 7/8=21,25=11,30=1/16;
 99/5=2/99;
 Leave Link    1 at Tue Feb 12 16:21:10 2019, MaxMem=  1342177280 cpu:               7.6 elap:               0.5
 (Enter /gpfs/apps/hpc/Apps/Restricted/Gaussian/g16/Rev_B.01-AVX/g16/l101.exe)
 Structure from the checkpoint file:  "amide-monoBIP-E1PT.chk"
 --------------------------------------
 Simple amide-monoBIP E1PT optimization
 --------------------------------------
 Charge =  1 Multiplicity = 2
 Redundant internal coordinates found in file.  (old form).
 C,0,-0.484912443,2.7427719359,0.4319855316
 C,0,-1.8736148201,2.95850539,0.3775599261
 C,0,-2.4073995216,4.2449158939,0.3132068723
 C,0,-1.4942190877,5.2951349931,0.3105200836
 C,0,-0.1052095935,5.0777382401,0.365757377
 C,0,0.4404707323,3.7941679767,0.4262272972
 C,0,-1.4947942457,0.7530885108,0.4490320933
 H,0,-3.4747611953,4.4134925973,0.2653278876
 H,0,-1.8612887497,6.3125024998,0.262797135
 H,0,0.5457779557,5.9432620084,0.3587182022
 N,0,-2.4502216963,1.7006334088,0.3913132354
 C,0,-3.1046293645,-1.1738122757,0.3577697206
 C,0,-1.7257830484,-0.6728729365,0.4640891171
 C,0,-0.6659558225,-1.5493342143,0.5588458346
 C,0,-0.8656440546,-2.9473020232,0.5492753356
 C,0,-2.1830244089,-3.4388737262,0.4403178131
 C,0,-3.299036033,-2.628503812,0.3449323092
 H,0,0.3459331283,-1.1735246649,0.6436054872
 H,0,-2.3223527534,-4.5081792703,0.4303896001
 C,0,0.3480501212,-3.8618538802,0.6318143346
 C,0,-4.7066588378,-3.2048951872,0.2278268785
 O,0,-4.0687442484,-0.371887789,0.277269004
 N,0,-0.2979413814,1.3775004426,0.4765504567
 H,0,0.6378677728,0.9827928037,0.5012235812
 C,0,1.8923651289,3.4494390753,0.4677205267
 C,0,1.2497079961,-3.57675791,-0.5911309763
 H,0,1.571246247,-2.5331773936,-0.6155561061
 H,0,2.1415238037,-4.206507356,-0.540391347
 H,0,0.723394223,-3.7988501464,-1.522615182
 C,0,1.1334779484,-3.5481352741,1.9243278116
 H,0,0.5221632544,-3.7385802374,2.8091987422
 H,0,2.0159640749,-4.1906950393,1.9715327345
 H,0,1.4711294908,-2.5098209888,1.9542574505
 C,0,-0.0331232756,-5.3477170651,0.6343615046
 H,0,-0.6526965622,-5.6048093824,1.497423128
 H,0,-0.5695674468,-5.6279564291,-0.2755913353
 H,0,0.8765643569,-5.9494840059,0.6844238874
 C,0,-5.3428446697,-2.7530343453,-1.1069202875
 H,0,-6.3475517664,-3.1764351721,-1.185453205
 H,0,-5.4159743951,-1.6683393131,-1.1676257663
 H,0,-4.7552339885,-3.1140797684,-1.9550499686
 C,0,-5.5672215617,-2.714195773,1.4149445543
 H,0,-5.6777125275,-1.63149742,1.3989640321
 H,0,-6.558433424,-3.1713392374,1.3548513394
 H,0,-5.112693624,-3.0057517795,2.3653929661
 C,0,-4.6937708158,-4.7414351846,0.2508237977
 H,0,-4.1212013467,-5.1556330974,-0.5830384049
 H,0,-4.2768856132,-5.1297403952,1.1836144332
 H,0,-5.720328848,-5.1033720817,0.1652843369
 O,0,2.245991773,2.2579975833,0.501391059
 N,0,2.7751166823,4.4625608655,0.4672128645
 H,0,2.5008956631,5.4302150293,0.421799115
 H,0,3.759522436,4.2431886188,0.4807739586
 H,0,-3.4300142378,1.4223867318,0.3526800731
 Recover connectivity data from disk.
 ITRead=  0  0  0  0  0  0  0  0  0  0  0  0  0  0  0  0  0  0  0  0
 ITRead=  0  0  0  0  0  0  0  0  0  0  0  0  0  0  0  0  0  0  0  0
 ITRead=  0  0  0  0  0  0  0  0  0  0  0  0  0  0
 MicOpt= -1 -1 -1 -1 -1 -1 -1 -1 -1 -1 -1 -1 -1 -1 -1 -1 -1 -1 -1 -1
 MicOpt= -1 -1 -1 -1 -1 -1 -1 -1 -1 -1 -1 -1 -1 -1 -1 -1 -1 -1 -1 -1
 MicOpt= -1 -1 -1 -1 -1 -1 -1 -1 -1 -1 -1 -1 -1 -1
 NAtoms=     54 NQM=       54 NQMF=       0 NMMI=      0 NMMIF=      0
                NMic=       0 NMicF=      0.
                    Isotopes and Nuclear Properties:
 (Nuclear quadrupole moments (NQMom) in fm**2, nuclear magnetic moments (NMagM)
  in nuclear magnetons)

  Atom         1           2           3           4           5           6           7           8           9          10
 IAtWgt=          12          12          12          12          12          12          12           1           1           1
 AtmWgt=  12.0000000  12.0000000  12.0000000  12.0000000  12.0000000  12.0000000  12.0000000   1.0078250   1.0078250   1.0078250
 NucSpn=           0           0           0           0           0           0           0           1           1           1
 AtZEff=   3.6000000   3.6000000   3.6000000   3.6000000   3.6000000   3.6000000   3.6000000   1.0000000   1.0000000   1.0000000
 NQMom=    0.0000000   0.0000000   0.0000000   0.0000000   0.0000000   0.0000000   0.0000000   0.0000000   0.0000000   0.0000000
 NMagM=    0.0000000   0.0000000   0.0000000   0.0000000   0.0000000   0.0000000   0.0000000   2.7928460   2.7928460   2.7928460
 AtZNuc=   6.0000000   6.0000000   6.0000000   6.0000000   6.0000000   6.0000000   6.0000000   1.0000000   1.0000000   1.0000000

  Atom        11          12          13          14          15          16          17          18          19          20
 IAtWgt=          14          12          12          12          12          12          12           1           1          12
 AtmWgt=  14.0030740  12.0000000  12.0000000  12.0000000  12.0000000  12.0000000  12.0000000   1.0078250   1.0078250  12.0000000
 NucSpn=           2           0           0           0           0           0           0           1           1           0
 AtZEff=   4.5500000   3.6000000   3.6000000   3.6000000   3.6000000   3.6000000   3.6000000   1.0000000   1.0000000   3.6000000
 NQMom=    2.0440000   0.0000000   0.0000000   0.0000000   0.0000000   0.0000000   0.0000000   0.0000000   0.0000000   0.0000000
 NMagM=    0.4037610   0.0000000   0.0000000   0.0000000   0.0000000   0.0000000   0.0000000   2.7928460   2.7928460   0.0000000
 AtZNuc=   7.0000000   6.0000000   6.0000000   6.0000000   6.0000000   6.0000000   6.0000000   1.0000000   1.0000000   6.0000000

  Atom        21          22          23          24          25          26          27          28          29          30
 IAtWgt=          12          16          14           1          12          12           1           1           1          12
 AtmWgt=  12.0000000  15.9949146  14.0030740   1.0078250  12.0000000  12.0000000   1.0078250   1.0078250   1.0078250  12.0000000
 NucSpn=           0           0           2           1           0           0           1           1           1           0
 AtZEff=   3.6000000   5.6000000   4.5500000   1.0000000   3.6000000   3.6000000   1.0000000   1.0000000   1.0000000   3.6000000
 NQMom=    0.0000000   0.0000000   2.0440000   0.0000000   0.0000000   0.0000000   0.0000000   0.0000000   0.0000000   0.0000000
 NMagM=    0.0000000   0.0000000   0.4037610   2.7928460   0.0000000   0.0000000   2.7928460   2.7928460   2.7928460   0.0000000
 AtZNuc=   6.0000000   8.0000000   7.0000000   1.0000000   6.0000000   6.0000000   1.0000000   1.0000000   1.0000000   6.0000000

  Atom        31          32          33          34          35          36          37          38          39          40
 IAtWgt=           1           1           1          12           1           1           1          12           1           1
 AtmWgt=   1.0078250   1.0078250   1.0078250  12.0000000   1.0078250   1.0078250   1.0078250  12.0000000   1.0078250   1.0078250
 NucSpn=           1           1           1           0           1           1           1           0           1           1
 AtZEff=   1.0000000   1.0000000   1.0000000   3.6000000   1.0000000   1.0000000   1.0000000   3.6000000   1.0000000   1.0000000
 NQMom=    0.0000000   0.0000000   0.0000000   0.0000000   0.0000000   0.0000000   0.0000000   0.0000000   0.0000000   0.0000000
 NMagM=    2.7928460   2.7928460   2.7928460   0.0000000   2.7928460   2.7928460   2.7928460   0.0000000   2.7928460   2.7928460
 AtZNuc=   1.0000000   1.0000000   1.0000000   6.0000000   1.0000000   1.0000000   1.0000000   6.0000000   1.0000000   1.0000000

  Atom        41          42          43          44          45          46          47          48          49          50
 IAtWgt=           1          12           1           1           1          12           1           1           1          16
 AtmWgt=   1.0078250  12.0000000   1.0078250   1.0078250   1.0078250  12.0000000   1.0078250   1.0078250   1.0078250  15.9949146
 NucSpn=           1           0           1           1           1           0           1           1           1           0
 AtZEff=   1.0000000   3.6000000   1.0000000   1.0000000   1.0000000   3.6000000   1.0000000   1.0000000   1.0000000   5.6000000
 NQMom=    0.0000000   0.0000000   0.0000000   0.0000000   0.0000000   0.0000000   0.0000000   0.0000000   0.0000000   0.0000000
 NMagM=    2.7928460   0.0000000   2.7928460   2.7928460   2.7928460   0.0000000   2.7928460   2.7928460   2.7928460   0.0000000
 AtZNuc=   1.0000000   6.0000000   1.0000000   1.0000000   1.0000000   6.0000000   1.0000000   1.0000000   1.0000000   8.0000000

  Atom        51          52          53          54
 IAtWgt=          14           1           1           1
 AtmWgt=  14.0030740   1.0078250   1.0078250   1.0078250
 NucSpn=           2           1           1           1
 AtZEff=   4.5500000   1.0000000   1.0000000   1.0000000
 NQMom=    2.0440000   0.0000000   0.0000000   0.0000000
 NMagM=    0.4037610   2.7928460   2.7928460   2.7928460
 AtZNuc=   7.0000000   1.0000000   1.0000000   1.0000000
 Leave Link  101 at Tue Feb 12 16:21:11 2019, MaxMem=  1342177280 cpu:               4.5 elap:               0.4
 (Enter /gpfs/apps/hpc/Apps/Restricted/Gaussian/g16/Rev_B.01-AVX/g16/l103.exe)

 GradGradGradGradGradGradGradGradGradGradGradGradGradGradGradGradGradGrad
 Berny optimization.
 Initialization pass.
                           ----------------------------
                           !    Initial Parameters    !
                           ! (Angstroms and Degrees)  !
 --------------------------                            --------------------------
 ! Name  Definition              Value          Derivative Info.                !
 --------------------------------------------------------------------------------
 ! R1    R(1,2)                  1.4064         estimate D2E/DX2                !
 ! R2    R(1,6)                  1.4006         estimate D2E/DX2                !
 ! R3    R(1,23)                 1.3787         estimate D2E/DX2                !
 ! R4    R(2,3)                  1.3942         estimate D2E/DX2                !
 ! R5    R(2,11)                 1.3838         estimate D2E/DX2                !
 ! R6    R(3,4)                  1.3917         estimate D2E/DX2                !
 ! R7    R(3,8)                  1.0817         estimate D2E/DX2                !
 ! R8    R(4,5)                  1.407          estimate D2E/DX2                !
 ! R9    R(4,9)                  1.0826         estimate D2E/DX2                !
 ! R10   R(5,6)                  1.3961         estimate D2E/DX2                !
 ! R11   R(5,10)                 1.083          estimate D2E/DX2                !
 ! R12   R(6,25)                 1.4928         estimate D2E/DX2                !
 ! R13   R(7,11)                 1.3469         estimate D2E/DX2                !
 ! R14   R(7,13)                 1.4446         estimate D2E/DX2                !
 ! R15   R(7,23)                 1.3502         estimate D2E/DX2                !
 ! R16   R(11,54)                1.0193         estimate D2E/DX2                !
 ! R17   R(12,13)                1.4709         estimate D2E/DX2                !
 ! R18   R(12,17)                1.4677         estimate D2E/DX2                !
 ! R19   R(12,22)                1.2566         estimate D2E/DX2                !
 ! R20   R(13,14)                1.3785         estimate D2E/DX2                !
 ! R21   R(14,15)                1.4122         estimate D2E/DX2                !
 ! R22   R(14,18)                1.0827         estimate D2E/DX2                !
 ! R23   R(15,16)                1.4103         estimate D2E/DX2                !
 ! R24   R(15,20)                1.5219         estimate D2E/DX2                !
 ! R25   R(16,17)                1.3825         estimate D2E/DX2                !
 ! R26   R(16,19)                1.0784         estimate D2E/DX2                !
 ! R27   R(17,21)                1.5256         estimate D2E/DX2                !
 ! R28   R(20,26)                1.5459         estimate D2E/DX2                !
 ! R29   R(20,30)                1.5446         estimate D2E/DX2                !
 ! R30   R(20,34)                1.534          estimate D2E/DX2                !
 ! R31   R(21,38)                1.5461         estimate D2E/DX2                !
 ! R32   R(21,42)                1.5462         estimate D2E/DX2                !
 ! R33   R(21,46)                1.5368         estimate D2E/DX2                !
 ! R34   R(23,24)                1.0159         estimate D2E/DX2                !
 ! R35   R(25,50)                1.2433         estimate D2E/DX2                !
 ! R36   R(25,51)                1.3438         estimate D2E/DX2                !
 ! R37   R(26,27)                1.0923         estimate D2E/DX2                !
 ! R38   R(26,28)                1.0929         estimate D2E/DX2                !
 ! R39   R(26,29)                1.0927         estimate D2E/DX2                !
 ! R40   R(30,31)                1.0922         estimate D2E/DX2                !
 ! R41   R(30,32)                1.0927         estimate D2E/DX2                !
 ! R42   R(30,33)                1.0922         estimate D2E/DX2                !
 ! R43   R(34,35)                1.0931         estimate D2E/DX2                !
 ! R44   R(34,36)                1.0928         estimate D2E/DX2                !
 ! R45   R(34,37)                1.0919         estimate D2E/DX2                !
 ! R46   R(38,39)                1.0931         estimate D2E/DX2                !
 ! R47   R(38,40)                1.0889         estimate D2E/DX2                !
 ! R48   R(38,41)                1.0931         estimate D2E/DX2                !
 ! R49   R(42,43)                1.0884         estimate D2E/DX2                !
 ! R50   R(42,44)                1.0932         estimate D2E/DX2                !
 ! R51   R(42,45)                1.0931         estimate D2E/DX2                !
 ! R52   R(46,47)                1.093          estimate D2E/DX2                !
 ! R53   R(46,48)                1.093          estimate D2E/DX2                !
 ! R54   R(46,49)                1.0919         estimate D2E/DX2                !
 ! R55   R(51,52)                1.0068         estimate D2E/DX2                !
 ! R56   R(51,53)                1.0086         estimate D2E/DX2                !
 ! A1    A(2,1,6)              122.4838         estimate D2E/DX2                !
 ! A2    A(2,1,23)             106.6813         estimate D2E/DX2                !
 ! A3    A(6,1,23)             130.8332         estimate D2E/DX2                !
 ! A4    A(1,2,3)              121.4223         estimate D2E/DX2                !
 ! A5    A(1,2,11)             105.7606         estimate D2E/DX2                !
 ! A6    A(3,2,11)             132.8144         estimate D2E/DX2                !
 ! A7    A(2,3,4)              116.4323         estimate D2E/DX2                !
 ! A8    A(2,3,8)              121.5761         estimate D2E/DX2                !
 ! A9    A(4,3,8)              121.9914         estimate D2E/DX2                !
 ! A10   A(3,4,5)              122.0792         estimate D2E/DX2                !
 ! A11   A(3,4,9)              119.1274         estimate D2E/DX2                !
 ! A12   A(5,4,9)              118.7933         estimate D2E/DX2                !
 ! A13   A(4,5,6)              121.9808         estimate D2E/DX2                !
 ! A14   A(4,5,10)             118.0119         estimate D2E/DX2                !
 ! A15   A(6,5,10)             120.0072         estimate D2E/DX2                !
 ! A16   A(1,6,5)              115.6011         estimate D2E/DX2                !
 ! A17   A(1,6,25)             117.9765         estimate D2E/DX2                !
 ! A18   A(5,6,25)             126.4181         estimate D2E/DX2                !
 ! A19   A(11,7,13)            125.553          estimate D2E/DX2                !
 ! A20   A(11,7,23)            107.7177         estimate D2E/DX2                !
 ! A21   A(13,7,23)            126.7265         estimate D2E/DX2                !
 ! A22   A(2,11,7)             110.1417         estimate D2E/DX2                !
 ! A23   A(2,11,54)            130.4145         estimate D2E/DX2                !
 ! A24   A(7,11,54)            119.4376         estimate D2E/DX2                !
 ! A25   A(13,12,17)           117.5397         estimate D2E/DX2                !
 ! A26   A(13,12,22)           120.4323         estimate D2E/DX2                !
 ! A27   A(17,12,22)           122.0276         estimate D2E/DX2                !
 ! A28   A(7,13,12)            119.0328         estimate D2E/DX2                !
 ! A29   A(7,13,14)            120.3552         estimate D2E/DX2                !
 ! A30   A(12,13,14)           120.6063         estimate D2E/DX2                !
 ! A31   A(13,14,15)           121.3461         estimate D2E/DX2                !
 ! A32   A(13,14,18)           120.2116         estimate D2E/DX2                !
 ! A33   A(15,14,18)           118.4424         estimate D2E/DX2                !
 ! A34   A(14,15,16)           118.5321         estimate D2E/DX2                !
 ! A35   A(14,15,20)           118.7985         estimate D2E/DX2                !
 ! A36   A(16,15,20)           122.6602         estimate D2E/DX2                !
 ! A37   A(15,16,17)           123.7155         estimate D2E/DX2                !
 ! A38   A(15,16,19)           117.8406         estimate D2E/DX2                !
 ! A39   A(17,16,19)           118.4438         estimate D2E/DX2                !
 ! A40   A(12,17,16)           118.2584         estimate D2E/DX2                !
 ! A41   A(12,17,21)           119.826          estimate D2E/DX2                !
 ! A42   A(16,17,21)           121.9156         estimate D2E/DX2                !
 ! A43   A(15,20,26)           108.1438         estimate D2E/DX2                !
 ! A44   A(15,20,30)           109.1982         estimate D2E/DX2                !
 ! A45   A(15,20,34)           112.5815         estimate D2E/DX2                !
 ! A46   A(26,20,30)           109.1429         estimate D2E/DX2                !
 ! A47   A(26,20,34)           108.9582         estimate D2E/DX2                !
 ! A48   A(30,20,34)           108.7654         estimate D2E/DX2                !
 ! A49   A(17,21,38)           109.6036         estimate D2E/DX2                !
 ! A50   A(17,21,42)           109.5548         estimate D2E/DX2                !
 ! A51   A(17,21,46)           111.6465         estimate D2E/DX2                !
 ! A52   A(38,21,42)           109.941          estimate D2E/DX2                !
 ! A53   A(38,21,46)           107.9738         estimate D2E/DX2                !
 ! A54   A(42,21,46)           108.0893         estimate D2E/DX2                !
 ! A55   A(1,23,7)             109.6984         estimate D2E/DX2                !
 ! A56   A(1,23,24)            120.6917         estimate D2E/DX2                !
 ! A57   A(7,23,24)            129.5923         estimate D2E/DX2                !
 ! A58   A(6,25,50)            119.9128         estimate D2E/DX2                !
 ! A59   A(6,25,51)            117.6973         estimate D2E/DX2                !
 ! A60   A(50,25,51)           122.3899         estimate D2E/DX2                !
 ! A61   A(20,26,27)           111.4436         estimate D2E/DX2                !
 ! A62   A(20,26,28)           109.4471         estimate D2E/DX2                !
 ! A63   A(20,26,29)           110.8518         estimate D2E/DX2                !
 ! A64   A(27,26,28)           108.1406         estimate D2E/DX2                !
 ! A65   A(27,26,29)           108.4767         estimate D2E/DX2                !
 ! A66   A(28,26,29)           108.3906         estimate D2E/DX2                !
 ! A67   A(20,30,31)           110.9714         estimate D2E/DX2                !
 ! A68   A(20,30,32)           109.1106         estimate D2E/DX2                !
 ! A69   A(20,30,33)           111.9127         estimate D2E/DX2                !
 ! A70   A(31,30,32)           108.3306         estimate D2E/DX2                !
 ! A71   A(31,30,33)           108.4559         estimate D2E/DX2                !
 ! A72   A(32,30,33)           107.9494         estimate D2E/DX2                !
 ! A73   A(20,34,35)           111.7142         estimate D2E/DX2                !
 ! A74   A(20,34,36)           111.6526         estimate D2E/DX2                !
 ! A75   A(20,34,37)           109.0807         estimate D2E/DX2                !
 ! A76   A(35,34,36)           108.5954         estimate D2E/DX2                !
 ! A77   A(35,34,37)           107.8431         estimate D2E/DX2                !
 ! A78   A(36,34,37)           107.8073         estimate D2E/DX2                !
 ! A79   A(21,38,39)           109.088          estimate D2E/DX2                !
 ! A80   A(21,38,40)           111.525          estimate D2E/DX2                !
 ! A81   A(21,38,41)           110.6149         estimate D2E/DX2                !
 ! A82   A(39,38,40)           108.6704         estimate D2E/DX2                !
 ! A83   A(39,38,41)           108.0834         estimate D2E/DX2                !
 ! A84   A(40,38,41)           108.7759         estimate D2E/DX2                !
 ! A85   A(21,42,43)           111.1568         estimate D2E/DX2                !
 ! A86   A(21,42,44)           109.2528         estimate D2E/DX2                !
 ! A87   A(21,42,45)           110.5785         estimate D2E/DX2                !
 ! A88   A(43,42,44)           108.8513         estimate D2E/DX2                !
 ! A89   A(43,42,45)           108.68           estimate D2E/DX2                !
 ! A90   A(44,42,45)           108.2565         estimate D2E/DX2                !
 ! A91   A(21,46,47)           111.8307         estimate D2E/DX2                !
 ! A92   A(21,46,48)           111.7884         estimate D2E/DX2                !
 ! A93   A(21,46,49)           108.8071         estimate D2E/DX2                !
 ! A94   A(47,46,48)           108.4598         estimate D2E/DX2                !
 ! A95   A(47,46,49)           107.8862         estimate D2E/DX2                !
 ! A96   A(48,46,49)           107.9204         estimate D2E/DX2                !
 ! A97   A(25,51,52)           123.0748         estimate D2E/DX2                !
 ! A98   A(25,51,53)           118.5002         estimate D2E/DX2                !
 ! A99   A(52,51,53)           118.3902         estimate D2E/DX2                !
 ! D1    D(6,1,2,3)              0.0536         estimate D2E/DX2                !
 ! D2    D(6,1,2,11)           179.5261         estimate D2E/DX2                !
 ! D3    D(23,1,2,3)          -179.524          estimate D2E/DX2                !
 ! D4    D(23,1,2,11)           -0.0515         estimate D2E/DX2                !
 ! D5    D(2,1,6,5)              0.1395         estimate D2E/DX2                !
 ! D6    D(2,1,6,25)          -179.1492         estimate D2E/DX2                !
 ! D7    D(23,1,6,5)           179.6047         estimate D2E/DX2                !
 ! D8    D(23,1,6,25)            0.316          estimate D2E/DX2                !
 ! D9    D(2,1,23,7)             0.1438         estimate D2E/DX2                !
 ! D10   D(2,1,23,24)          178.7583         estimate D2E/DX2                !
 ! D11   D(6,1,23,7)          -179.3852         estimate D2E/DX2                !
 ! D12   D(6,1,23,24)           -0.7708         estimate D2E/DX2                !
 ! D13   D(1,2,3,4)             -0.2087         estimate D2E/DX2                !
 ! D14   D(1,2,3,8)            179.6307         estimate D2E/DX2                !
 ! D15   D(11,2,3,4)          -179.5166         estimate D2E/DX2                !
 ! D16   D(11,2,3,8)             0.3228         estimate D2E/DX2                !
 ! D17   D(1,2,11,7)            -0.0582         estimate D2E/DX2                !
 ! D18   D(1,2,11,54)         -179.1262         estimate D2E/DX2                !
 ! D19   D(3,2,11,7)           179.3281         estimate D2E/DX2                !
 ! D20   D(3,2,11,54)            0.2601         estimate D2E/DX2                !
 ! D21   D(2,3,4,5)              0.1745         estimate D2E/DX2                !
 ! D22   D(2,3,4,9)           -179.9313         estimate D2E/DX2                !
 ! D23   D(8,3,4,5)           -179.6642         estimate D2E/DX2                !
 ! D24   D(8,3,4,9)              0.2301         estimate D2E/DX2                !
 ! D25   D(3,4,5,6)              0.0191         estimate D2E/DX2                !
 ! D26   D(3,4,5,10)           179.9219         estimate D2E/DX2                !
 ! D27   D(9,4,5,6)           -179.8754         estimate D2E/DX2                !
 ! D28   D(9,4,5,10)             0.0273         estimate D2E/DX2                !
 ! D29   D(4,5,6,1)             -0.1745         estimate D2E/DX2                !
 ! D30   D(4,5,6,25)           179.0449         estimate D2E/DX2                !
 ! D31   D(10,5,6,1)           179.9246         estimate D2E/DX2                !
 ! D32   D(10,5,6,25)           -0.856          estimate D2E/DX2                !
 ! D33   D(1,6,25,50)            0.2388         estimate D2E/DX2                !
 ! D34   D(1,6,25,51)         -179.7477         estimate D2E/DX2                !
 ! D35   D(5,6,25,50)         -178.9641         estimate D2E/DX2                !
 ! D36   D(5,6,25,51)            1.0494         estimate D2E/DX2                !
 ! D37   D(13,7,11,2)         -179.2725         estimate D2E/DX2                !
 ! D38   D(13,7,11,54)          -0.0872         estimate D2E/DX2                !
 ! D39   D(23,7,11,2)            0.1475         estimate D2E/DX2                !
 ! D40   D(23,7,11,54)         179.3328         estimate D2E/DX2                !
 ! D41   D(11,7,13,12)           2.4829         estimate D2E/DX2                !
 ! D42   D(11,7,13,14)        -178.3739         estimate D2E/DX2                !
 ! D43   D(23,7,13,12)        -176.8278         estimate D2E/DX2                !
 ! D44   D(23,7,13,14)           2.3154         estimate D2E/DX2                !
 ! D45   D(11,7,23,1)           -0.1808         estimate D2E/DX2                !
 ! D46   D(11,7,23,24)        -178.6346         estimate D2E/DX2                !
 ! D47   D(13,7,23,1)          179.2305         estimate D2E/DX2                !
 ! D48   D(13,7,23,24)           0.7767         estimate D2E/DX2                !
 ! D49   D(17,12,13,7)         178.6078         estimate D2E/DX2                !
 ! D50   D(17,12,13,14)         -0.5332         estimate D2E/DX2                !
 ! D51   D(22,12,13,7)          -1.1619         estimate D2E/DX2                !
 ! D52   D(22,12,13,14)        179.6971         estimate D2E/DX2                !
 ! D53   D(13,12,17,16)          0.3491         estimate D2E/DX2                !
 ! D54   D(13,12,17,21)       -179.6259         estimate D2E/DX2                !
 ! D55   D(22,12,17,16)       -179.8851         estimate D2E/DX2                !
 ! D56   D(22,12,17,21)          0.1399         estimate D2E/DX2                !
 ! D57   D(7,13,14,15)        -178.757          estimate D2E/DX2                !
 ! D58   D(7,13,14,18)           1.2867         estimate D2E/DX2                !
 ! D59   D(12,13,14,15)          0.3726         estimate D2E/DX2                !
 ! D60   D(12,13,14,18)       -179.5838         estimate D2E/DX2                !
 ! D61   D(13,14,15,16)         -0.0207         estimate D2E/DX2                !
 ! D62   D(13,14,15,20)        178.9083         estimate D2E/DX2                !
 ! D63   D(18,14,15,16)        179.9365         estimate D2E/DX2                !
 ! D64   D(18,14,15,20)         -1.1346         estimate D2E/DX2                !
 ! D65   D(14,15,16,17)         -0.1666         estimate D2E/DX2                !
 ! D66   D(14,15,16,19)        179.7759         estimate D2E/DX2                !
 ! D67   D(20,15,16,17)       -179.0517         estimate D2E/DX2                !
 ! D68   D(20,15,16,19)          0.8907         estimate D2E/DX2                !
 ! D69   D(14,15,20,26)        -60.5299         estimate D2E/DX2                !
 ! D70   D(14,15,20,30)         58.1234         estimate D2E/DX2                !
 ! D71   D(14,15,20,34)        179.0361         estimate D2E/DX2                !
 ! D72   D(16,15,20,26)        118.3524         estimate D2E/DX2                !
 ! D73   D(16,15,20,30)       -122.9943         estimate D2E/DX2                !
 ! D74   D(16,15,20,34)         -2.0816         estimate D2E/DX2                !
 ! D75   D(15,16,17,12)         -0.0102         estimate D2E/DX2                !
 ! D76   D(15,16,17,21)        179.9642         estimate D2E/DX2                !
 ! D77   D(19,16,17,12)       -179.9524         estimate D2E/DX2                !
 ! D78   D(19,16,17,21)          0.022          estimate D2E/DX2                !
 ! D79   D(12,17,21,38)         61.1381         estimate D2E/DX2                !
 ! D80   D(12,17,21,42)        -59.5724         estimate D2E/DX2                !
 ! D81   D(12,17,21,46)       -179.2731         estimate D2E/DX2                !
 ! D82   D(16,17,21,38)       -118.8359         estimate D2E/DX2                !
 ! D83   D(16,17,21,42)        120.4536         estimate D2E/DX2                !
 ! D84   D(16,17,21,46)          0.7529         estimate D2E/DX2                !
 ! D85   D(15,20,26,27)         59.0845         estimate D2E/DX2                !
 ! D86   D(15,20,26,28)        178.6504         estimate D2E/DX2                !
 ! D87   D(15,20,26,29)        -61.8433         estimate D2E/DX2                !
 ! D88   D(30,20,26,27)        -59.6039         estimate D2E/DX2                !
 ! D89   D(30,20,26,28)         59.962          estimate D2E/DX2                !
 ! D90   D(30,20,26,29)        179.4682         estimate D2E/DX2                !
 ! D91   D(34,20,26,27)       -178.2432         estimate D2E/DX2                !
 ! D92   D(34,20,26,28)        -58.6773         estimate D2E/DX2                !
 ! D93   D(34,20,26,29)         60.8289         estimate D2E/DX2                !
 ! D94   D(15,20,30,31)         61.9027         estimate D2E/DX2                !
 ! D95   D(15,20,30,32)       -178.8052         estimate D2E/DX2                !
 ! D96   D(15,20,30,33)        -59.4037         estimate D2E/DX2                !
 ! D97   D(26,20,30,31)        179.9311         estimate D2E/DX2                !
 ! D98   D(26,20,30,32)        -60.7769         estimate D2E/DX2                !
 ! D99   D(26,20,30,33)         58.6247         estimate D2E/DX2                !
 ! D100  D(34,20,30,31)        -61.3094         estimate D2E/DX2                !
 ! D101  D(34,20,30,32)         57.9827         estimate D2E/DX2                !
 ! D102  D(34,20,30,33)        177.3842         estimate D2E/DX2                !
 ! D103  D(15,20,34,35)        -61.4533         estimate D2E/DX2                !
 ! D104  D(15,20,34,36)         60.3762         estimate D2E/DX2                !
 ! D105  D(15,20,34,37)        179.4203         estimate D2E/DX2                !
 ! D106  D(26,20,34,35)        178.5823         estimate D2E/DX2                !
 ! D107  D(26,20,34,36)        -59.5882         estimate D2E/DX2                !
 ! D108  D(26,20,34,37)         59.4559         estimate D2E/DX2                !
 ! D109  D(30,20,34,35)         59.7068         estimate D2E/DX2                !
 ! D110  D(30,20,34,36)       -178.4637         estimate D2E/DX2                !
 ! D111  D(30,20,34,37)        -59.4196         estimate D2E/DX2                !
 ! D112  D(17,21,38,39)        179.5862         estimate D2E/DX2                !
 ! D113  D(17,21,38,40)        -60.372          estimate D2E/DX2                !
 ! D114  D(17,21,38,41)         60.8286         estimate D2E/DX2                !
 ! D115  D(42,21,38,39)        -59.9377         estimate D2E/DX2                !
 ! D116  D(42,21,38,40)         60.104          estimate D2E/DX2                !
 ! D117  D(42,21,38,41)       -178.6953         estimate D2E/DX2                !
 ! D118  D(46,21,38,39)         57.7691         estimate D2E/DX2                !
 ! D119  D(46,21,38,40)        177.8109         estimate D2E/DX2                !
 ! D120  D(46,21,38,41)        -60.9885         estimate D2E/DX2                !
 ! D121  D(17,21,42,43)         62.7898         estimate D2E/DX2                !
 ! D122  D(17,21,42,44)       -177.0671         estimate D2E/DX2                !
 ! D123  D(17,21,42,45)        -58.0167         estimate D2E/DX2                !
 ! D124  D(38,21,42,43)        -57.7158         estimate D2E/DX2                !
 ! D125  D(38,21,42,44)         62.4273         estimate D2E/DX2                !
 ! D126  D(38,21,42,45)       -178.5222         estimate D2E/DX2                !
 ! D127  D(46,21,42,43)       -175.351          estimate D2E/DX2                !
 ! D128  D(46,21,42,44)        -55.2079         estimate D2E/DX2                !
 ! D129  D(46,21,42,45)         63.8426         estimate D2E/DX2                !
 ! D130  D(17,21,46,47)        -60.9641         estimate D2E/DX2                !
 ! D131  D(17,21,46,48)         60.8709         estimate D2E/DX2                !
 ! D132  D(17,21,46,49)        179.9617         estimate D2E/DX2                !
 ! D133  D(38,21,46,47)         59.5824         estimate D2E/DX2                !
 ! D134  D(38,21,46,48)       -178.5826         estimate D2E/DX2                !
 ! D135  D(38,21,46,49)        -59.4918         estimate D2E/DX2                !
 ! D136  D(42,21,46,47)        178.4745         estimate D2E/DX2                !
 ! D137  D(42,21,46,48)        -59.6905         estimate D2E/DX2                !
 ! D138  D(42,21,46,49)         59.4003         estimate D2E/DX2                !
 ! D139  D(6,25,51,52)          -1.2613         estimate D2E/DX2                !
 ! D140  D(6,25,51,53)        -179.0781         estimate D2E/DX2                !
 ! D141  D(50,25,51,52)        178.7525         estimate D2E/DX2                !
 ! D142  D(50,25,51,53)          0.9358         estimate D2E/DX2                !
 --------------------------------------------------------------------------------
 Trust Radius=3.00D-01 FncErr=1.00D-07 GrdErr=1.00D-07 EigMax=2.50D+02 EigMin=1.00D-04
 Number of steps in this run=    307 maximum allowed number of steps=    324.
 GradGradGradGradGradGradGradGradGradGradGradGradGradGradGradGradGradGrad

 Leave Link  103 at Tue Feb 12 16:21:11 2019, MaxMem=  1342177280 cpu:               0.2 elap:               0.0
 (Enter /gpfs/apps/hpc/Apps/Restricted/Gaussian/g16/Rev_B.01-AVX/g16/l202.exe)
 Symmetry turned off by external request.
 Stoichiometry    C22H27N3O2(1+,2)
 Framework group  C1[X(C22H27N3O2)]
 Deg. of freedom   156
 Full point group                 C1      NOp   1
                          Input orientation:                          
 ---------------------------------------------------------------------
 Center     Atomic      Atomic             Coordinates (Angstroms)
 Number     Number       Type             X           Y           Z
 ---------------------------------------------------------------------
      1          6           0       -0.484912    2.742772    0.431986
      2          6           0       -1.873615    2.958505    0.377560
      3          6           0       -2.407400    4.244916    0.313207
      4          6           0       -1.494219    5.295135    0.310520
      5          6           0       -0.105210    5.077738    0.365757
      6          6           0        0.440471    3.794168    0.426227
      7          6           0       -1.494794    0.753089    0.449032
      8          1           0       -3.474761    4.413493    0.265328
      9          1           0       -1.861289    6.312502    0.262797
     10          1           0        0.545778    5.943262    0.358718
     11          7           0       -2.450222    1.700633    0.391313
     12          6           0       -3.104629   -1.173812    0.357770
     13          6           0       -1.725783   -0.672873    0.464089
     14          6           0       -0.665956   -1.549334    0.558846
     15          6           0       -0.865644   -2.947302    0.549275
     16          6           0       -2.183024   -3.438874    0.440318
     17          6           0       -3.299036   -2.628504    0.344932
     18          1           0        0.345933   -1.173525    0.643605
     19          1           0       -2.322353   -4.508179    0.430390
     20          6           0        0.348050   -3.861854    0.631814
     21          6           0       -4.706659   -3.204895    0.227827
     22          8           0       -4.068744   -0.371888    0.277269
     23          7           0       -0.297941    1.377500    0.476550
     24          1           0        0.637868    0.982793    0.501224
     25          6           0        1.892365    3.449439    0.467721
     26          6           0        1.249708   -3.576758   -0.591131
     27          1           0        1.571246   -2.533177   -0.615556
     28          1           0        2.141524   -4.206507   -0.540391
     29          1           0        0.723394   -3.798850   -1.522615
     30          6           0        1.133478   -3.548135    1.924328
     31          1           0        0.522163   -3.738580    2.809199
     32          1           0        2.015964   -4.190695    1.971533
     33          1           0        1.471129   -2.509821    1.954257
     34          6           0       -0.033123   -5.347717    0.634362
     35          1           0       -0.652697   -5.604809    1.497423
     36          1           0       -0.569567   -5.627956   -0.275591
     37          1           0        0.876564   -5.949484    0.684424
     38          6           0       -5.342845   -2.753034   -1.106920
     39          1           0       -6.347552   -3.176435   -1.185453
     40          1           0       -5.415974   -1.668339   -1.167626
     41          1           0       -4.755234   -3.114080   -1.955050
     42          6           0       -5.567222   -2.714196    1.414945
     43          1           0       -5.677713   -1.631497    1.398964
     44          1           0       -6.558433   -3.171339    1.354851
     45          1           0       -5.112694   -3.005752    2.365393
     46          6           0       -4.693771   -4.741435    0.250824
     47          1           0       -4.121201   -5.155633   -0.583038
     48          1           0       -4.276886   -5.129740    1.183614
     49          1           0       -5.720329   -5.103372    0.165284
     50          8           0        2.245992    2.257998    0.501391
     51          7           0        2.775117    4.462561    0.467213
     52          1           0        2.500896    5.430215    0.421799
     53          1           0        3.759522    4.243189    0.480774
     54          1           0       -3.430014    1.422387    0.352680
 ---------------------------------------------------------------------
 Rotational constants (GHZ):           0.2897080           0.1102321           0.0828000
 Leave Link  202 at Tue Feb 12 16:21:11 2019, MaxMem=  1342177280 cpu:               1.7 elap:               0.2
 (Enter /gpfs/apps/hpc/Apps/Restricted/Gaussian/g16/Rev_B.01-AVX/g16/l716.exe)
 Electric field and nuclear coordinate derivatives read from checkpoint file.
 Dipole        =-1.28143979D+00 2.22584220D+00 8.22083725D-01
 Polarizability= 4.38093736D+02 2.66608998D+01 6.03653438D+02
                 1.31991386D+01-7.33790786D+00 1.86161049D+02
 Full mass-weighted force constant matrix:
 Low frequencies ---  -13.1406   -0.0016    0.0003    0.0024    9.4511   19.2039
 Low frequencies ---   28.0174   36.2884   47.3211
 Diagonal vibrational polarizability:
       52.4696428      59.1580419     259.9062099
 Harmonic frequencies (cm**-1), IR intensities (KM/Mole), Raman scattering
 activities (A**4/AMU), depolarization ratios for plane and unpolarized
 incident light, reduced masses (AMU), force constants (mDyne/A),
 and normal coordinates:
                      1                      2                      3
                      A                      A                      A
 Frequencies --     27.3802                35.7013                47.0652
 Red. masses --      4.3729                 4.0751                 3.6913
 Frc consts  --      0.0019                 0.0031                 0.0048
 IR Inten    --      0.2371                 3.7177                 1.3534
  Atom  AN      X      Y      Z        X      Y      Z        X      Y      Z
     1   6    -0.00   0.00   0.00     0.00   0.00  -0.02     0.00   0.00  -0.05
     2   6     0.00   0.01  -0.08     0.00   0.00   0.05     0.00  -0.00  -0.05
     3   6     0.01   0.01  -0.14    -0.01   0.00   0.16    -0.01  -0.01   0.00
     4   6     0.02   0.00  -0.10    -0.01   0.01   0.20    -0.01   0.00   0.05
     5   6     0.01  -0.00  -0.01    -0.01   0.01   0.12    -0.01   0.01   0.05
     6   6     0.00  -0.00   0.04    -0.00   0.01   0.01    -0.00   0.01   0.00
     7   6    -0.01   0.01  -0.03     0.01  -0.00  -0.07     0.01  -0.00  -0.10
     8   1     0.02   0.01  -0.21    -0.01   0.00   0.23    -0.01  -0.01   0.01
     9   1     0.03   0.00  -0.14    -0.02   0.01   0.28    -0.02  -0.00   0.09
    10   1     0.02  -0.00   0.02    -0.01   0.01   0.15    -0.02   0.01   0.10
    11   7    -0.00   0.01  -0.10     0.01  -0.00   0.01     0.01  -0.01  -0.08
    12   6    -0.01   0.00  -0.03     0.01   0.00  -0.08     0.01  -0.00  -0.06
    13   6    -0.01   0.01  -0.03     0.01  -0.00  -0.08     0.01  -0.00  -0.10
    14   6    -0.01   0.01  -0.03     0.01  -0.00  -0.06     0.01  -0.01  -0.09
    15   6     0.00   0.01  -0.03     0.00  -0.00  -0.01     0.00  -0.01  -0.04
    16   6    -0.00   0.01   0.02    -0.00   0.00   0.02     0.00  -0.00  -0.03
    17   6    -0.01  -0.00   0.03    -0.00   0.00  -0.01     0.00  -0.00  -0.04
    18   1    -0.00   0.01  -0.05     0.01  -0.00  -0.06     0.01  -0.01  -0.10
    19   1     0.00   0.01   0.04    -0.01   0.00   0.08    -0.01  -0.00   0.00
    20   6     0.01   0.02  -0.08    -0.01  -0.01   0.03    -0.00  -0.01   0.03
    21   6    -0.01  -0.01   0.09    -0.00  -0.00   0.01    -0.00   0.01   0.03
    22   8    -0.00   0.00  -0.09     0.02   0.00  -0.13     0.01  -0.00  -0.03
    23   7    -0.01   0.00   0.03     0.01   0.00  -0.10     0.01   0.00  -0.09
    24   1    -0.01  -0.00   0.09     0.01   0.00  -0.15     0.01   0.01  -0.11
    25   6     0.00  -0.01   0.13     0.00   0.01  -0.06    -0.00   0.01   0.03
    26   6    -0.04   0.03  -0.12     0.01  -0.05   0.03     0.01  -0.10   0.02
    27   1    -0.05   0.03  -0.12     0.02  -0.05   0.00     0.00  -0.10  -0.06
    28   1    -0.04   0.03  -0.15     0.00  -0.06   0.06     0.01  -0.10   0.07
    29   1    -0.08   0.03  -0.10     0.01  -0.07   0.03     0.01  -0.17   0.03
    30   6     0.06   0.02  -0.12    -0.02   0.02   0.03    -0.01   0.07   0.02
    31   1     0.11   0.01  -0.09    -0.03   0.04   0.03    -0.02   0.14   0.03
    32   1     0.07   0.02  -0.16    -0.02   0.02   0.05    -0.02   0.06   0.07
    33   1     0.05   0.02  -0.13    -0.02   0.02   0.01     0.00   0.07  -0.05
    34   6     0.01   0.02  -0.08    -0.02  -0.01   0.06    -0.01  -0.01   0.13
    35   1     0.05   0.01  -0.05    -0.02   0.02   0.07    -0.02   0.06   0.15
    36   1    -0.02   0.02  -0.06    -0.02  -0.02   0.07    -0.01  -0.07   0.15
    37   1     0.01   0.02  -0.11    -0.03  -0.01   0.08    -0.02  -0.01   0.18
    38   6    -0.02  -0.13   0.05     0.06  -0.15  -0.06    -0.13   0.09   0.11
    39   1    -0.01  -0.16   0.09     0.06  -0.16  -0.06    -0.13   0.08   0.17
    40   1    -0.04  -0.14  -0.04     0.05  -0.15  -0.18    -0.15   0.09   0.19
    41   1    -0.01  -0.19   0.08     0.09  -0.23  -0.00    -0.20   0.15   0.04
    42   6    -0.01   0.09   0.05    -0.06   0.13  -0.08     0.11  -0.07   0.14
    43   1    -0.01   0.08  -0.04    -0.05   0.13  -0.20     0.12  -0.06   0.23
    44   1    -0.01   0.08   0.08    -0.06   0.13  -0.09     0.10  -0.05   0.21
    45   1    -0.02   0.15   0.07    -0.11   0.22  -0.03     0.21  -0.13   0.08
    46   6    -0.00  -0.01   0.23    -0.01  -0.00   0.19    -0.00   0.01  -0.08
    47   1    -0.01  -0.09   0.26     0.02  -0.11   0.26    -0.06   0.07  -0.15
    48   1     0.01   0.08   0.26    -0.04   0.11   0.25     0.06  -0.07  -0.14
    49   1    -0.00  -0.03   0.28    -0.01  -0.01   0.20    -0.01   0.01  -0.04
    50   8    -0.01  -0.02   0.14     0.01   0.01  -0.15     0.00   0.01  -0.09
    51   7     0.01  -0.02   0.21    -0.01   0.02  -0.01    -0.01   0.02   0.21
    52   1     0.03  -0.02   0.15    -0.01   0.02   0.09    -0.00   0.02   0.26
    53   1     0.01  -0.04   0.24    -0.00   0.03  -0.04    -0.01   0.02   0.20
    54   1    -0.00   0.01  -0.15     0.01  -0.01   0.01     0.01  -0.01  -0.06
                      4                      5                      6
                      A                      A                      A
 Frequencies --     50.1285                59.0523                70.9131
 Red. masses --      2.8858                 4.8615                 5.6282
 Frc consts  --      0.0043                 0.0100                 0.0167
 IR Inten    --      0.3039                 2.6949                 3.3520
  Atom  AN      X      Y      Z        X      Y      Z        X      Y      Z
     1   6    -0.01  -0.00   0.02     0.02   0.01   0.01    -0.00   0.00  -0.08
     2   6    -0.00   0.01   0.02     0.02  -0.04  -0.01    -0.00   0.00  -0.02
     3   6     0.01   0.01   0.01    -0.05  -0.07  -0.04    -0.01  -0.00  -0.03
     4   6     0.02   0.00   0.01    -0.10  -0.03  -0.05    -0.01  -0.00  -0.07
     5   6     0.01  -0.01   0.01    -0.09   0.03  -0.02    -0.01   0.00  -0.09
     6   6     0.00  -0.01   0.01    -0.03   0.06   0.01    -0.00   0.00  -0.09
     7   6    -0.02   0.00   0.02     0.09  -0.03   0.02    -0.00   0.00   0.03
     8   1     0.01   0.02   0.01    -0.06  -0.13  -0.06    -0.01  -0.00   0.01
     9   1     0.02   0.01   0.01    -0.14  -0.05  -0.07    -0.01  -0.00  -0.08
    10   1     0.02  -0.01   0.00    -0.13   0.06  -0.03    -0.01   0.00  -0.10
    11   7    -0.01   0.01   0.02     0.06  -0.06   0.00    -0.00   0.00   0.05
    12   6    -0.01  -0.00   0.02     0.06   0.00   0.02    -0.00   0.00   0.12
    13   6    -0.02   0.01   0.02     0.08  -0.03   0.02    -0.00   0.00   0.08
    14   6    -0.01   0.01   0.01     0.05  -0.07   0.02     0.00   0.00   0.07
    15   6    -0.00   0.01   0.03     0.01  -0.06   0.02     0.00   0.00   0.06
    16   6    -0.00   0.00   0.03    -0.01  -0.02   0.02     0.00   0.00   0.07
    17   6    -0.00  -0.00   0.01     0.02   0.01   0.02    -0.00   0.00   0.08
    18   1    -0.01   0.02  -0.01     0.07  -0.09   0.01     0.00   0.00   0.04
    19   1     0.00   0.00   0.04    -0.04  -0.02   0.02     0.00   0.00   0.04
    20   6     0.01   0.02   0.01    -0.04  -0.12  -0.01     0.00  -0.00  -0.01
    21   6     0.00  -0.01  -0.04    -0.00   0.06   0.00     0.01   0.00  -0.01
    22   8    -0.02  -0.00   0.03     0.08   0.02   0.00    -0.01   0.00   0.16
    23   7    -0.01  -0.00   0.02     0.07   0.01   0.03    -0.00   0.00  -0.05
    24   1    -0.02  -0.01   0.03     0.08   0.03   0.04     0.00   0.00  -0.12
    25   6    -0.00  -0.03   0.01    -0.01   0.14   0.02    -0.00  -0.01  -0.05
    26   6    -0.13  -0.09  -0.12    -0.07  -0.18  -0.05    -0.03   0.04  -0.02
    27   1    -0.15  -0.09  -0.25    -0.02  -0.20  -0.07    -0.01   0.04   0.02
    28   1    -0.11  -0.07  -0.14    -0.11  -0.23  -0.09    -0.04   0.03  -0.07
    29   1    -0.22  -0.19  -0.04    -0.12  -0.16  -0.03    -0.05   0.10  -0.01
    30   6     0.16   0.15  -0.12     0.03  -0.15  -0.05     0.03  -0.06  -0.01
    31   1     0.27   0.24  -0.02     0.07  -0.12  -0.02     0.06  -0.10  -0.00
    32   1     0.16   0.14  -0.16     0.01  -0.19  -0.09     0.04  -0.05  -0.07
    33   1     0.18   0.14  -0.26     0.08  -0.16  -0.07     0.02  -0.05   0.03
    34   6     0.01   0.02   0.20    -0.11  -0.10   0.02    -0.00  -0.00  -0.06
    35   1     0.06   0.12   0.27    -0.10  -0.06   0.04     0.02  -0.04  -0.05
    36   1    -0.05  -0.08   0.26    -0.14  -0.10   0.04    -0.02   0.03  -0.06
    37   1     0.01   0.03   0.21    -0.14  -0.15   0.02     0.00  -0.00  -0.10
    38   6     0.05   0.00  -0.05     0.04   0.08  -0.01     0.13   0.02  -0.06
    39   1     0.05   0.01  -0.09     0.03   0.11  -0.03     0.12   0.05  -0.15
    40   1     0.06   0.00  -0.05     0.07   0.08  -0.02     0.16   0.03  -0.06
    41   1     0.07   0.01  -0.04     0.04   0.06  -0.00     0.19   0.01  -0.02
    42   6    -0.04  -0.02  -0.06    -0.01   0.10  -0.02    -0.10  -0.01  -0.09
    43   1    -0.05  -0.02  -0.06     0.02   0.10  -0.03    -0.11  -0.01  -0.10
    44   1    -0.04  -0.03  -0.10    -0.02   0.12  -0.03    -0.09  -0.01  -0.18
    45   1    -0.07  -0.03  -0.05    -0.03   0.09  -0.01    -0.18  -0.00  -0.05
    46   6     0.01  -0.01  -0.05    -0.06   0.06   0.01     0.00   0.00  -0.02
    47   1     0.04   0.00  -0.04    -0.05   0.04   0.02     0.06   0.00   0.02
    48   1    -0.02  -0.02  -0.04    -0.09   0.05   0.02    -0.06  -0.00   0.01
    49   1     0.01  -0.01  -0.09    -0.07   0.09  -0.01     0.01   0.01  -0.09
    50   8    -0.01  -0.03   0.03     0.06   0.17   0.05    -0.01  -0.01  -0.30
    51   7     0.01  -0.04  -0.03    -0.07   0.20  -0.00     0.01  -0.01   0.34
    52   1     0.02  -0.03  -0.04    -0.12   0.18  -0.06     0.03   0.00   0.45
    53   1     0.01  -0.04  -0.03    -0.06   0.25  -0.01     0.00  -0.03   0.32
    54   1    -0.01   0.02   0.02     0.07  -0.10  -0.01    -0.01   0.00   0.11
                      7                      8                      9
                      A                      A                      A
 Frequencies --    113.3995               120.5862               132.7649
 Red. masses --      5.6614                 4.0481                 4.0205
 Frc consts  --      0.0429                 0.0347                 0.0418
 IR Inten    --      8.6098                 0.0465                 0.4529
  Atom  AN      X      Y      Z        X      Y      Z        X      Y      Z
     1   6     0.01  -0.00  -0.08     0.01  -0.01  -0.09    -0.04  -0.04   0.01
     2   6     0.01   0.00  -0.08     0.01  -0.01  -0.12    -0.04  -0.06   0.01
     3   6     0.01   0.00  -0.01     0.01  -0.00  -0.01    -0.05  -0.07   0.00
     4   6     0.01   0.00   0.05     0.00   0.00   0.13    -0.06  -0.06  -0.00
     5   6     0.00   0.00   0.06     0.00  -0.00   0.14    -0.05  -0.05  -0.01
     6   6     0.01   0.00  -0.01     0.00  -0.01   0.01    -0.04  -0.04   0.00
     7   6     0.01  -0.00  -0.11     0.00  -0.01  -0.12     0.01  -0.05  -0.00
     8   1     0.01   0.00  -0.01     0.01  -0.00  -0.01    -0.05  -0.08   0.00
     9   1     0.00   0.01   0.10     0.00   0.00   0.23    -0.07  -0.07  -0.01
    10   1     0.00   0.00   0.13     0.00  -0.00   0.25    -0.06  -0.04  -0.01
    11   7     0.01   0.00  -0.10     0.01  -0.01  -0.17    -0.01  -0.07   0.01
    12   6    -0.02  -0.00   0.13    -0.01  -0.01   0.00     0.04  -0.02  -0.01
    13   6     0.00  -0.00  -0.09    -0.01  -0.01  -0.02     0.03  -0.04  -0.01
    14   6     0.01  -0.01  -0.22    -0.01  -0.00   0.08     0.02  -0.04  -0.03
    15   6     0.01  -0.01  -0.13    -0.01  -0.00   0.15     0.02  -0.04  -0.02
    16   6    -0.00  -0.01  -0.01    -0.02  -0.01   0.19     0.01  -0.04   0.00
    17   6    -0.01  -0.00   0.09    -0.01  -0.01   0.10     0.02  -0.01   0.01
    18   1     0.02  -0.01  -0.35    -0.01  -0.00   0.07     0.02  -0.04  -0.04
    19   1    -0.00  -0.01  -0.01    -0.02  -0.01   0.25    -0.00  -0.04   0.01
    20   6     0.00  -0.00  -0.05    -0.00   0.01   0.04     0.08   0.03  -0.00
    21   6    -0.01  -0.01   0.04    -0.00   0.00   0.02    -0.02   0.11   0.01
    22   8    -0.03  -0.01   0.34    -0.00  -0.01  -0.05     0.05  -0.02  -0.03
    23   7     0.01  -0.00  -0.11     0.00  -0.01  -0.12    -0.01  -0.03   0.01
    24   1     0.01  -0.00  -0.06    -0.00  -0.02  -0.05     0.01  -0.00   0.01
    25   6     0.01   0.01   0.05     0.01   0.00   0.01    -0.05  -0.07   0.00
    26   6     0.11  -0.08   0.02    -0.09   0.12  -0.01     0.09   0.07   0.01
    27   1     0.09  -0.07  -0.04    -0.04   0.11   0.09     0.03   0.09   0.00
    28   1     0.11  -0.05   0.14    -0.12   0.07  -0.15     0.12   0.12   0.04
    29   1     0.19  -0.16  -0.01    -0.17   0.25   0.01     0.12   0.02   0.00
    30   6    -0.12   0.08   0.01     0.09  -0.09  -0.00     0.05   0.09   0.00
    31   1    -0.21   0.15  -0.04     0.19  -0.25   0.04     0.05   0.08   0.00
    32   1    -0.13   0.07   0.14     0.15  -0.01  -0.16     0.07   0.12   0.02
    33   1    -0.11   0.08  -0.03     0.00  -0.06   0.09     0.02   0.10  -0.02
    34   6     0.00  -0.00   0.00     0.02   0.00  -0.07     0.16   0.01   0.00
    35   1    -0.03   0.03  -0.01     0.08  -0.08  -0.04     0.18  -0.02   0.01
    36   1     0.03  -0.04  -0.00    -0.04   0.07  -0.05     0.16  -0.02   0.01
    37   1    -0.00  -0.00   0.06     0.03   0.01  -0.18     0.19   0.05  -0.00
    38   6     0.12   0.01  -0.02     0.04   0.08   0.02     0.04   0.19   0.00
    39   1     0.11   0.04  -0.11     0.05   0.08  -0.04    -0.00   0.30  -0.01
    40   1     0.16   0.01  -0.03     0.05   0.08   0.08     0.16   0.20   0.02
    41   1     0.19  -0.01   0.03     0.07   0.12   0.03     0.01   0.14   0.01
    42   6    -0.13  -0.02  -0.05    -0.04  -0.05   0.02     0.00   0.20   0.00
    43   1    -0.14  -0.02  -0.05    -0.01  -0.05   0.08     0.05   0.20  -0.03
    44   1    -0.11  -0.04  -0.15    -0.05  -0.02  -0.06    -0.02   0.24   0.01
    45   1    -0.22  -0.01   0.00    -0.09  -0.12   0.02    -0.02   0.20   0.01
    46   6    -0.01  -0.01   0.04    -0.01   0.00  -0.07    -0.16   0.12   0.02
    47   1     0.03  -0.02   0.08     0.04   0.06  -0.06    -0.17   0.07   0.04
    48   1    -0.06  -0.00   0.07    -0.07  -0.07  -0.07    -0.22   0.09   0.03
    49   1    -0.01  -0.01  -0.00    -0.01   0.01  -0.16    -0.19   0.20  -0.01
    50   8     0.01   0.02   0.16     0.01   0.01   0.05    -0.07  -0.07   0.00
    51   7    -0.00   0.02  -0.03    -0.01   0.01  -0.06    -0.04  -0.08  -0.00
    52   1    -0.01   0.01  -0.13    -0.02   0.01  -0.07    -0.03  -0.08   0.01
    53   1    -0.00   0.03   0.01    -0.00   0.03  -0.04    -0.04  -0.09   0.01
    54   1     0.00   0.01  -0.02     0.00  -0.00  -0.15    -0.01  -0.10  -0.01
                     10                     11                     12
                      A                      A                      A
 Frequencies --    145.7303               161.9110               182.5175
 Red. masses --      5.1860                 5.7675                 3.8036
 Frc consts  --      0.0649                 0.0891                 0.0747
 IR Inten    --      5.8605                 3.1742                 0.4769
  Atom  AN      X      Y      Z        X      Y      Z        X      Y      Z
     1   6     0.09  -0.06   0.02     0.01  -0.01  -0.20     0.00   0.01   0.10
     2   6     0.08  -0.06   0.02    -0.00  -0.00   0.06     0.00   0.01   0.11
     3   6     0.05  -0.08  -0.01    -0.01  -0.00   0.22     0.00   0.01   0.04
     4   6     0.03  -0.06  -0.02    -0.01  -0.00   0.02     0.01   0.01  -0.08
     5   6     0.02  -0.04  -0.01     0.00  -0.01  -0.22     0.01   0.01  -0.09
     6   6     0.06  -0.03   0.01     0.01  -0.01  -0.26     0.00   0.01   0.02
     7   6     0.03  -0.06   0.02     0.00  -0.00  -0.02     0.00   0.01  -0.00
     8   1     0.05  -0.11  -0.02    -0.02   0.01   0.48     0.00   0.01   0.04
     9   1     0.01  -0.06  -0.03    -0.01  -0.00   0.09     0.01   0.00  -0.17
    10   1    -0.00  -0.03  -0.01     0.00  -0.01  -0.28     0.01   0.00  -0.19
    11   7     0.06  -0.04   0.02    -0.00  -0.00   0.18     0.00   0.01   0.08
    12   6    -0.07  -0.03  -0.00    -0.00   0.00  -0.02    -0.00  -0.00  -0.05
    13   6    -0.06  -0.04   0.01    -0.00  -0.00  -0.00     0.00   0.00  -0.10
    14   6    -0.08  -0.05   0.01    -0.00  -0.00   0.02     0.01  -0.00  -0.18
    15   6    -0.07  -0.04  -0.01    -0.00  -0.00   0.03    -0.00  -0.00  -0.03
    16   6    -0.07  -0.06  -0.02    -0.00   0.00   0.01    -0.02  -0.00   0.21
    17   6    -0.07  -0.05  -0.01    -0.00   0.00  -0.02    -0.01  -0.01   0.14
    18   1    -0.08  -0.05   0.01    -0.01   0.00   0.04     0.02  -0.00  -0.29
    19   1    -0.06  -0.06  -0.03    -0.00   0.00   0.01    -0.03  -0.00   0.38
    20   6     0.00   0.07   0.00    -0.00   0.00   0.01    -0.01  -0.00  -0.04
    21   6    -0.09  -0.04  -0.01    -0.00   0.00  -0.01    -0.00  -0.02   0.07
    22   8    -0.06  -0.03  -0.00     0.00   0.00  -0.05     0.00  -0.01  -0.17
    23   7     0.06  -0.08   0.03     0.01  -0.01  -0.24     0.00   0.01   0.05
    24   1     0.03  -0.13   0.02     0.01  -0.02  -0.23     0.00   0.01  -0.00
    25   6     0.09   0.10  -0.01     0.01   0.00   0.01     0.01   0.01   0.01
    26   6    -0.03   0.16  -0.00    -0.03   0.03  -0.00     0.04  -0.03  -0.01
    27   1    -0.14   0.19  -0.02    -0.01   0.02   0.03     0.03  -0.03  -0.05
    28   1     0.05   0.26   0.00    -0.04   0.01  -0.05     0.04  -0.02   0.05
    29   1    -0.00   0.09  -0.00    -0.06   0.08   0.00     0.08  -0.08  -0.02
    30   6    -0.02   0.17  -0.00     0.03  -0.01  -0.00    -0.06   0.03  -0.01
    31   1    -0.01   0.16   0.00     0.06  -0.06   0.01    -0.10   0.05  -0.03
    32   1     0.01   0.22   0.02     0.05   0.01  -0.05    -0.06   0.04   0.05
    33   1    -0.07   0.18  -0.04     0.00  -0.01   0.02    -0.07   0.03  -0.02
    34   6     0.15   0.03   0.01     0.01   0.00  -0.00    -0.01   0.00  -0.04
    35   1     0.18  -0.01   0.02     0.01  -0.01  -0.00     0.05  -0.02  -0.00
    36   1     0.16  -0.01   0.02    -0.00   0.01  -0.00    -0.07   0.02  -0.01
    37   1     0.20   0.11   0.00     0.01   0.01  -0.02    -0.01  -0.00  -0.11
    38   6    -0.11  -0.04  -0.01    -0.03  -0.01  -0.00     0.10   0.07   0.05
    39   1    -0.11  -0.05   0.02    -0.03  -0.02   0.03     0.14   0.00  -0.09
    40   1    -0.12  -0.04  -0.01    -0.04  -0.01  -0.01     0.04   0.06   0.15
    41   1    -0.13  -0.05  -0.02    -0.05  -0.02  -0.01     0.21   0.18   0.08
    42   6    -0.10  -0.03  -0.02     0.02   0.01   0.00    -0.10  -0.10   0.03
    43   1    -0.09  -0.03  -0.02     0.02   0.01  -0.01     0.00  -0.08   0.16
    44   1    -0.10  -0.02  -0.03     0.02   0.01   0.03    -0.13   0.01  -0.16
    45   1    -0.11  -0.03  -0.01     0.05   0.02  -0.00    -0.24  -0.26   0.05
    46   6    -0.11  -0.04  -0.01    -0.00   0.00  -0.00     0.02  -0.02  -0.05
    47   1    -0.13  -0.05  -0.01    -0.01  -0.00  -0.00     0.09   0.06  -0.03
    48   1    -0.11  -0.04  -0.01     0.00   0.01  -0.00    -0.06  -0.10  -0.04
    49   1    -0.12  -0.02   0.00    -0.00   0.00   0.01     0.03  -0.02  -0.16
    50   8     0.20   0.13  -0.04     0.00   0.01   0.27     0.00   0.01  -0.01
    51   7     0.00   0.19   0.03     0.00   0.01   0.11     0.01   0.00   0.01
    52   1    -0.07   0.16  -0.02     0.01  -0.01  -0.26     0.02   0.01   0.03
    53   1     0.02   0.27  -0.02     0.00   0.01   0.25     0.01  -0.00  -0.01
    54   1     0.05  -0.02   0.02    -0.01  -0.00   0.25     0.00   0.01   0.01
                     13                     14                     15
                      A                      A                      A
 Frequencies --    217.3589               234.6659               243.6333
 Red. masses --      1.5281                 3.6704                 1.4503
 Frc consts  --      0.0425                 0.1191                 0.0507
 IR Inten    --      1.4432                 6.1381                 0.7339
  Atom  AN      X      Y      Z        X      Y      Z        X      Y      Z
     1   6     0.00  -0.01  -0.06     0.02  -0.07   0.01    -0.00  -0.01   0.02
     2   6     0.00  -0.01  -0.05     0.02  -0.10   0.01    -0.00  -0.01   0.02
     3   6    -0.00  -0.00  -0.01    -0.04  -0.15  -0.01     0.00  -0.01   0.00
     4   6    -0.00  -0.00   0.04    -0.08  -0.12  -0.01     0.01  -0.01  -0.02
     5   6    -0.00  -0.01   0.03    -0.07  -0.08   0.01     0.00  -0.02  -0.01
     6   6     0.00  -0.01  -0.03    -0.01  -0.06   0.01     0.00  -0.02   0.01
     7   6    -0.01  -0.00   0.03     0.07  -0.05  -0.01    -0.02  -0.00  -0.02
     8   1    -0.00  -0.00   0.01    -0.05  -0.20  -0.02     0.00  -0.00  -0.00
     9   1    -0.00  -0.00   0.10    -0.10  -0.13  -0.02     0.01  -0.01  -0.04
    10   1    -0.00  -0.00   0.07    -0.10  -0.06   0.01     0.00  -0.02  -0.02
    11   7    -0.00  -0.00  -0.01     0.05  -0.09   0.01    -0.01  -0.00   0.00
    12   6    -0.00   0.00   0.03     0.01   0.07  -0.00    -0.01  -0.01  -0.01
    13   6    -0.01   0.00   0.09     0.02   0.01  -0.02    -0.01  -0.00  -0.03
    14   6    -0.01   0.01   0.09     0.03   0.03  -0.02    -0.01   0.01  -0.02
    15   6     0.00   0.00  -0.01    -0.01   0.06   0.00    -0.01   0.01   0.02
    16   6     0.00   0.00  -0.02    -0.01   0.09   0.01    -0.00  -0.00   0.07
    17   6     0.00   0.00   0.04    -0.00   0.09  -0.00     0.01  -0.01  -0.01
    18   1    -0.01   0.00   0.13     0.02   0.04  -0.04    -0.01   0.01  -0.03
    19   1     0.01   0.01  -0.07    -0.01   0.10   0.02    -0.00  -0.00   0.13
    20   6    -0.00  -0.00  -0.03    -0.05   0.07   0.00    -0.02   0.01   0.00
    21   6     0.01   0.00   0.02     0.04   0.04  -0.00     0.03  -0.01  -0.02
    22   8     0.01   0.00  -0.07     0.02   0.10   0.02    -0.02  -0.02   0.03
    23   7    -0.00  -0.01  -0.01     0.06  -0.06  -0.01    -0.01  -0.01  -0.00
    24   1    -0.01  -0.01   0.02     0.07  -0.04  -0.01    -0.02  -0.03  -0.02
    25   6     0.00  -0.00  -0.01    -0.01  -0.05   0.00     0.01  -0.00   0.01
    26   6     0.03  -0.03  -0.02    -0.08   0.09  -0.01    -0.05   0.03  -0.01
    27   1    -0.19   0.04  -0.17     0.06   0.05   0.09    -0.12   0.05  -0.06
    28   1     0.15   0.17   0.15    -0.16  -0.04  -0.14    -0.00   0.09   0.00
    29   1     0.13  -0.29  -0.01    -0.16   0.27  -0.01    -0.04  -0.05   0.00
    30   6    -0.04   0.03  -0.02    -0.07   0.08   0.01    -0.04   0.01   0.01
    31   1    -0.21   0.46  -0.04    -0.10   0.13  -0.00    -0.11   0.20  -0.00
    32   1    -0.27  -0.26   0.23    -0.08   0.06   0.06    -0.14  -0.11   0.12
    33   1     0.31  -0.08  -0.24    -0.04   0.07  -0.01     0.11  -0.03  -0.09
    34   6    -0.01   0.00  -0.03    -0.11   0.09   0.00    -0.03   0.01  -0.02
    35   1     0.03  -0.01  -0.01    -0.15   0.13  -0.01     0.02  -0.01   0.01
    36   1    -0.05   0.01  -0.01    -0.10   0.11  -0.01    -0.10   0.05   0.00
    37   1    -0.01   0.00  -0.08    -0.15   0.04   0.03    -0.04   0.01  -0.11
    38   6     0.04   0.02   0.02     0.02  -0.00  -0.00     0.05  -0.00  -0.03
    39   1     0.06  -0.03  -0.05     0.11  -0.20  -0.08    -0.08   0.29   0.09
    40   1    -0.01   0.02   0.06    -0.20  -0.02   0.05     0.38   0.01  -0.17
    41   1     0.09   0.08   0.03     0.13   0.16   0.00    -0.10  -0.28  -0.02
    42   6    -0.02  -0.02   0.01     0.02   0.00  -0.00     0.11   0.02   0.02
    43   1     0.03  -0.01   0.06     0.02   0.01   0.02    -0.06   0.00  -0.11
    44   1    -0.04   0.04  -0.05     0.02   0.00  -0.03     0.17  -0.15   0.25
    45   1    -0.07  -0.08   0.02     0.01  -0.01  -0.00     0.31   0.23  -0.01
    46   6     0.01   0.00   0.00     0.17   0.05   0.01    -0.00  -0.01  -0.02
    47   1    -0.02   0.02  -0.03     0.12   0.10  -0.06     0.15  -0.03   0.10
    48   1     0.05  -0.01  -0.02     0.32   0.09  -0.04    -0.20  -0.01   0.07
    49   1     0.01  -0.00   0.04     0.20  -0.05   0.13     0.01   0.02  -0.22
    50   8     0.01  -0.00   0.01     0.02  -0.04  -0.00     0.03   0.01  -0.00
    51   7    -0.01   0.00   0.00    -0.03  -0.03  -0.01    -0.01   0.01   0.00
    52   1    -0.01   0.00  -0.04    -0.06  -0.04   0.01    -0.02   0.01  -0.01
    53   1    -0.00   0.01   0.01    -0.02   0.00  -0.01    -0.01   0.03  -0.02
    54   1    -0.00  -0.00  -0.02     0.06  -0.14   0.01    -0.01   0.01   0.01
                     16                     17                     18
                      A                      A                      A
 Frequencies --    251.6035               267.6083               272.1084
 Red. masses --      2.3678                 2.3250                 1.2422
 Frc consts  --      0.0883                 0.0981                 0.0542
 IR Inten    --      4.0574                 5.5601                 5.0190
  Atom  AN      X      Y      Z        X      Y      Z        X      Y      Z
     1   6    -0.01  -0.03  -0.03    -0.01  -0.03  -0.01     0.01   0.02   0.01
     2   6    -0.01   0.00  -0.03    -0.02  -0.01   0.00     0.01   0.01   0.01
     3   6     0.01   0.01  -0.01     0.00  -0.01  -0.03     0.00   0.01   0.01
     4   6     0.03  -0.01   0.02     0.02  -0.03  -0.01    -0.01   0.02  -0.00
     5   6     0.02  -0.04   0.02     0.01  -0.05   0.03    -0.00   0.03  -0.01
     6   6     0.01  -0.04  -0.02     0.00  -0.05   0.01    -0.00   0.03   0.00
     7   6    -0.06  -0.00   0.04    -0.05  -0.01   0.01     0.02   0.00  -0.01
     8   1     0.02   0.03   0.00     0.01   0.00  -0.05     0.00   0.01   0.02
     9   1     0.05   0.00   0.06     0.04  -0.02  -0.03    -0.02   0.01  -0.01
    10   1     0.03  -0.04   0.05     0.01  -0.05   0.07    -0.00   0.03  -0.03
    11   7    -0.04   0.01   0.01    -0.04   0.00   0.03     0.02   0.00  -0.01
    12   6    -0.03  -0.02   0.02    -0.03   0.00   0.00     0.02  -0.02  -0.00
    13   6    -0.05  -0.00   0.05    -0.03   0.01   0.01     0.02  -0.01  -0.01
    14   6    -0.03   0.02   0.02     0.02   0.04  -0.00     0.01  -0.01   0.01
    15   6    -0.00   0.01  -0.05     0.05   0.05  -0.00    -0.01  -0.01  -0.00
    16   6     0.02  -0.01  -0.10     0.02   0.05   0.03     0.00  -0.03  -0.03
    17   6     0.02  -0.02   0.02    -0.01   0.01   0.01     0.00  -0.03  -0.00
    18   1    -0.04   0.03   0.02     0.01   0.06  -0.01     0.02  -0.03   0.02
    19   1     0.03  -0.01  -0.18     0.03   0.05   0.05     0.00  -0.03  -0.05
    20   6    -0.01   0.01  -0.02     0.05   0.02  -0.01    -0.01   0.00   0.00
    21   6     0.04  -0.01   0.04    -0.02   0.01   0.00    -0.01  -0.02   0.01
    22   8    -0.04  -0.04  -0.07    -0.03  -0.00  -0.02     0.02  -0.02   0.00
    23   7    -0.05  -0.03   0.01    -0.04  -0.03  -0.02     0.02   0.02   0.00
    24   1    -0.07  -0.07   0.03    -0.05  -0.06  -0.03     0.02   0.03  -0.01
    25   6     0.02  -0.00  -0.01     0.01  -0.02   0.00    -0.00   0.01   0.00
    26   6    -0.01  -0.02  -0.02     0.16  -0.05   0.05    -0.03   0.04  -0.00
    27   1     0.18  -0.07   0.09     0.40  -0.12   0.21     0.30  -0.06   0.26
    28   1    -0.12  -0.19  -0.12     0.00  -0.26   0.04    -0.23  -0.27  -0.25
    29   1    -0.08   0.18  -0.03     0.17   0.19  -0.01    -0.18   0.45  -0.02
    30   6    -0.05   0.03  -0.01     0.13  -0.02  -0.04    -0.02   0.03   0.00
    31   1     0.02  -0.24  -0.02     0.15   0.14   0.01    -0.12   0.33  -0.00
    32   1     0.10   0.23  -0.11     0.03  -0.16  -0.05    -0.17  -0.18   0.17
    33   1    -0.28   0.10   0.14     0.29  -0.07  -0.15     0.23  -0.05  -0.16
    34   6    -0.05   0.02   0.03    -0.08   0.06  -0.01     0.00   0.00   0.01
    35   1    -0.18   0.11  -0.04    -0.14   0.12  -0.04    -0.03   0.01  -0.01
    36   1     0.07  -0.02  -0.03    -0.07   0.10  -0.03     0.04  -0.01  -0.01
    37   1    -0.08  -0.00   0.20    -0.14  -0.04   0.03     0.01   0.01   0.05
    38   6     0.17   0.07  -0.00    -0.08   0.01   0.03     0.01  -0.01   0.00
    39   1     0.15   0.16  -0.13    -0.13   0.09   0.14    -0.01   0.05   0.01
    40   1     0.29   0.08   0.03    -0.00   0.01  -0.01     0.07  -0.00  -0.01
    41   1     0.24   0.04   0.06    -0.19  -0.07  -0.01    -0.00  -0.05   0.01
    42   6     0.07  -0.01   0.06    -0.07   0.00  -0.03    -0.01  -0.02   0.01
    43   1     0.14   0.00   0.14    -0.15  -0.00  -0.10     0.07  -0.01   0.08
    44   1     0.03   0.07   0.04    -0.03  -0.07  -0.03    -0.04   0.06  -0.06
    45   1     0.06  -0.10   0.04    -0.07   0.09  -0.00    -0.07  -0.12   0.00
    46   6    -0.02  -0.01   0.03    -0.00   0.01  -0.02    -0.05  -0.02   0.01
    47   1    -0.09  -0.03   0.00     0.12   0.03   0.06    -0.07  -0.05   0.01
    48   1     0.02  -0.02   0.01    -0.12   0.01   0.04    -0.06  -0.04   0.01
    49   1    -0.04   0.03   0.10     0.02  -0.00  -0.16    -0.07   0.01   0.01
    50   8     0.07   0.01  -0.00     0.07   0.00  -0.00    -0.03   0.00   0.00
    51   7    -0.03   0.05   0.02    -0.04   0.03   0.01     0.02  -0.02  -0.01
    52   1    -0.07   0.03  -0.13    -0.09   0.01  -0.12     0.05  -0.00   0.09
    53   1    -0.02   0.09  -0.04    -0.03   0.09  -0.07     0.02  -0.04   0.04
    54   1    -0.05   0.04  -0.01    -0.04   0.02   0.03     0.02  -0.00  -0.01
                     19                     20                     21
                      A                      A                      A
 Frequencies --    273.5908               277.3918               289.3734
 Red. masses --      2.5174                 2.9756                 1.4285
 Frc consts  --      0.1110                 0.1349                 0.0705
 IR Inten    --      1.6063                23.3464                 9.6765
  Atom  AN      X      Y      Z        X      Y      Z        X      Y      Z
     1   6     0.02   0.01  -0.03     0.02   0.02  -0.09     0.01  -0.00   0.04
     2   6     0.02  -0.01  -0.09     0.02  -0.00  -0.01     0.01  -0.01   0.03
     3   6    -0.01  -0.02   0.07     0.00  -0.02  -0.14    -0.01  -0.02   0.03
     4   6    -0.03  -0.00   0.11    -0.02   0.00  -0.05    -0.02  -0.02  -0.02
     5   6    -0.02   0.02  -0.07    -0.02   0.03   0.15    -0.01  -0.00  -0.03
     6   6     0.00   0.02  -0.10    -0.00   0.04   0.04     0.00   0.00   0.02
     7   6     0.04  -0.00   0.07     0.05   0.00   0.06     0.01  -0.00  -0.05
     8   1    -0.02  -0.04   0.18     0.00  -0.04  -0.25    -0.01  -0.04   0.04
     9   1    -0.06  -0.01   0.24    -0.04  -0.01  -0.09    -0.03  -0.02  -0.05
    10   1    -0.03   0.02  -0.11    -0.03   0.05   0.32    -0.02   0.00  -0.09
    11   7     0.04  -0.02  -0.11     0.03  -0.01   0.18     0.01  -0.01  -0.03
    12   6     0.01   0.02   0.04     0.01   0.01   0.03    -0.01   0.01  -0.02
    13   6     0.02   0.01   0.07     0.02   0.00   0.09     0.00   0.00  -0.04
    14   6     0.01  -0.00  -0.01     0.01  -0.01   0.01     0.00   0.02   0.03
    15   6     0.00   0.00  -0.03    -0.01  -0.01  -0.03     0.01   0.02   0.00
    16   6    -0.01   0.01   0.02    -0.01   0.00   0.00     0.01   0.02  -0.07
    17   6    -0.01   0.01   0.03    -0.01   0.01   0.03    -0.00   0.01  -0.01
    18   1     0.02  -0.00  -0.06     0.01  -0.01  -0.03    -0.01   0.02   0.10
    19   1    -0.00   0.01   0.02    -0.01   0.00  -0.01     0.01   0.02  -0.12
    20   6     0.00   0.01  -0.03    -0.01   0.00  -0.03     0.00   0.02   0.02
    21   6    -0.01  -0.01   0.01    -0.01  -0.01   0.01    -0.00  -0.01   0.02
    22   8     0.02   0.02  -0.04     0.03   0.02  -0.07    -0.01   0.01   0.01
    23   7     0.04   0.02   0.16     0.05   0.01  -0.15     0.01  -0.00  -0.02
    24   1     0.05   0.04   0.21     0.06   0.04  -0.14     0.02  -0.00  -0.03
    25   6    -0.00   0.00  -0.04    -0.01   0.01   0.03     0.00   0.00   0.01
    26   6     0.03  -0.03  -0.01    -0.00  -0.02  -0.03     0.00   0.03   0.02
    27   1     0.12  -0.05   0.01     0.03  -0.03  -0.03    -0.16   0.08  -0.07
    28   1    -0.02  -0.10  -0.02    -0.02  -0.05  -0.03     0.10   0.18   0.11
    29   1     0.03   0.03  -0.03    -0.01  -0.00  -0.03     0.07  -0.14   0.02
    30   6    -0.04   0.05  -0.01    -0.06   0.05  -0.01     0.05  -0.03  -0.00
    31   1    -0.01  -0.12  -0.03    -0.04  -0.13  -0.03     0.09  -0.07   0.02
    32   1     0.07   0.20  -0.06     0.05   0.20  -0.04     0.05  -0.03  -0.07
    33   1    -0.21   0.10   0.07    -0.24   0.10   0.09     0.05  -0.03   0.03
    34   6    -0.00   0.01  -0.00     0.02  -0.01   0.00    -0.05   0.03   0.01
    35   1    -0.06   0.04  -0.03    -0.01   0.01  -0.02    -0.09   0.06  -0.01
    36   1     0.04  -0.01  -0.02     0.06  -0.04  -0.01    -0.03   0.04  -0.01
    37   1    -0.01   0.00   0.07     0.03   0.01   0.06    -0.08  -0.01   0.04
    38   6    -0.05  -0.02   0.02    -0.02  -0.02   0.02     0.02   0.02   0.01
    39   1    -0.16   0.23   0.20    -0.13   0.21   0.16    -0.12   0.34   0.15
    40   1     0.22  -0.01  -0.11     0.23  -0.01  -0.10     0.38   0.04  -0.11
    41   1    -0.23  -0.27  -0.00    -0.18  -0.25   0.01    -0.15  -0.27   0.02
    42   6    -0.05  -0.03  -0.01    -0.03  -0.04   0.00    -0.04  -0.05   0.01
    43   1    -0.16  -0.04  -0.09    -0.08  -0.04  -0.02     0.15  -0.03   0.20
    44   1    -0.00  -0.14   0.03    -0.01  -0.08   0.00    -0.12   0.15  -0.21
    45   1    -0.01   0.08   0.01    -0.03   0.00   0.01    -0.21  -0.31   0.01
    46   6     0.02  -0.01  -0.03     0.01  -0.02  -0.02    -0.01  -0.01   0.03
    47   1     0.19   0.02   0.08     0.13   0.01   0.06    -0.06  -0.03   0.01
    48   1    -0.17  -0.03   0.05    -0.14  -0.04   0.04     0.05   0.01   0.02
    49   1     0.04  -0.02  -0.25     0.02  -0.02  -0.19    -0.01  -0.01   0.11
    50   8    -0.04  -0.01   0.00    -0.05  -0.01   0.01    -0.00   0.00   0.00
    51   7     0.02  -0.03   0.03     0.03  -0.03  -0.06     0.01  -0.01  -0.02
    52   1     0.05  -0.02  -0.10     0.05  -0.01   0.27     0.02   0.01   0.20
    53   1     0.02  -0.06   0.04     0.02  -0.06   0.12     0.01  -0.02   0.08
    54   1     0.05  -0.04  -0.15     0.04  -0.02   0.19     0.01  -0.01  -0.02
                     22                     23                     24
                      A                      A                      A
 Frequencies --    298.9133               308.5058               313.1888
 Red. masses --      1.2865                 1.6136                 1.7103
 Frc consts  --      0.0677                 0.0905                 0.0988
 IR Inten    --    197.3114                40.4866                18.3659
  Atom  AN      X      Y      Z        X      Y      Z        X      Y      Z
     1   6     0.01  -0.00  -0.00    -0.02  -0.01   0.00    -0.01  -0.01  -0.05
     2   6     0.01  -0.01  -0.01    -0.02   0.01   0.00    -0.01  -0.00  -0.05
     3   6    -0.01  -0.01   0.03     0.00   0.02   0.02    -0.00   0.00  -0.02
     4   6    -0.02  -0.01   0.01     0.02   0.00  -0.00     0.00  -0.00   0.03
     5   6    -0.01   0.00  -0.03     0.02  -0.02  -0.02     0.00  -0.01   0.02
     6   6     0.01   0.01  -0.01    -0.00  -0.02  -0.00     0.00  -0.01  -0.04
     7   6    -0.00  -0.00  -0.00    -0.04   0.00  -0.01    -0.02   0.00   0.06
     8   1    -0.01  -0.03   0.06     0.00   0.04   0.03    -0.00   0.01  -0.01
     9   1    -0.02  -0.01   0.02     0.04   0.01  -0.00     0.01   0.00   0.08
    10   1    -0.02   0.01  -0.07     0.02  -0.02  -0.04     0.00  -0.01   0.05
    11   7     0.00  -0.00  -0.02    -0.03   0.01  -0.02    -0.01   0.00   0.02
    12   6    -0.02  -0.00   0.01    -0.01   0.00   0.01    -0.00   0.00   0.01
    13   6    -0.02   0.00   0.01    -0.01  -0.00   0.00    -0.01  -0.00   0.03
    14   6    -0.01   0.00   0.01    -0.01  -0.01  -0.00     0.00   0.00  -0.06
[...]
 ! R7    R(3,8)                 -0.4022                 18.2                    !
 ! R8    R(4,5)                 -0.0578                  2.6                    !
 ! R9    R(4,9)                  0.8035                 36.4                    !
 ! R11   R(5,10)                 0.606                  27.4                    !
 ! A7    A(2,3,4)               -0.0424                  1.9                    !
 ! A9    A(4,3,8)                0.0364                  1.6                    !
 ! A10   A(3,4,5)                0.0377                  1.7                    !
 ! A11   A(3,4,9)               -0.0334                  1.5                    !
 --------------------------------------------------------------------------------
                           ----------------------------
                           ! Normal Mode   150        !
 --------------------------                            --------------------------
 ! Name  Definition              Value          Relative Weight (%)             !
 --------------------------------------------------------------------------------
 ! R20   R(13,14)               -0.0468                  3.0                    !
 ! R21   R(14,15)               -0.0431                  2.7                    !
 ! R22   R(14,18)                1.081                  68.2                    !
 ! R37   R(26,27)                0.0244                  1.5                    !
 ! R42   R(30,33)                0.041                   2.6                    !
 ! A29   A(7,13,14)              0.0295                  1.9                    !
 ! A30   A(12,13,14)            -0.0273                  1.7                    !
 ! A31   A(13,14,15)             0.0565                  3.6                    !
 ! A32   A(13,14,18)            -0.0294                  1.9                    !
 ! A33   A(15,14,18)            -0.0271                  1.7                    !
 ! A34   A(14,15,16)            -0.0271                  1.7                    !
 ! A35   A(14,15,20)             0.0289                  1.8                    !
 --------------------------------------------------------------------------------
                           ----------------------------
                           ! Normal Mode   151        !
 --------------------------                            --------------------------
 ! Name  Definition              Value          Relative Weight (%)             !
 --------------------------------------------------------------------------------
 ! R4    R(2,3)                  0.0462                  2.5                    !
 ! R6    R(3,4)                  0.0639                  3.4                    !
 ! R7    R(3,8)                 -0.9946                 52.7                    !
 ! R9    R(4,9)                 -0.4235                 22.5                    !
 ! R11   R(5,10)                -0.0984                  5.2                    !
 ! A4    A(1,2,3)                0.0252                  1.3                    !
 ! A6    A(3,2,11)              -0.0278                  1.5                    !
 ! A7    A(2,3,4)               -0.0414                  2.2                    !
 ! A8    A(2,3,8)                0.0245                  1.3                    !
 --------------------------------------------------------------------------------
                           ----------------------------
                           ! Normal Mode   152        !
 --------------------------                            --------------------------
 ! Name  Definition              Value          Relative Weight (%)             !
 --------------------------------------------------------------------------------
 ! R23   R(15,16)                0.0418                  2.7                    !
 ! R25   R(16,17)                0.0433                  2.8                    !
 ! R26   R(16,19)               -1.0814                 69.4                    !
 ! R43   R(34,35)               -0.0103                  0.7                    !
 ! R44   R(34,36)               -0.0116                  0.7                    !
 ! R53   R(46,48)               -0.0167                  1.1                    !
 ! A34   A(14,15,16)             0.0279                  1.8                    !
 ! A36   A(16,15,20)            -0.0291                  1.9                    !
 ! A37   A(15,16,17)            -0.057                   3.7                    !
 ! A38   A(15,16,19)             0.0269                  1.7                    !
 ! A39   A(17,16,19)             0.0301                  1.9                    !
 ! A40   A(12,17,16)             0.0281                  1.8                    !
 ! A42   A(16,17,21)            -0.0295                  1.9                    !
 --------------------------------------------------------------------------------
                           ----------------------------
                           ! Normal Mode   153        !
 --------------------------                            --------------------------
 ! Name  Definition              Value          Relative Weight (%)             !
 --------------------------------------------------------------------------------
 ! R5    R(2,11)                 0.0472                  3.1                    !
 ! R13   R(7,11)                 0.0413                  2.7                    !
 ! R16   R(11,54)               -1.0671                 69.2                    !
 ! R34   R(23,24)                0.0861                  5.6                    !
 ! A5    A(1,2,11)               0.0239                  1.5                    !
 ! A6    A(3,2,11)              -0.0249                  1.6                    !
 ! A19   A(11,7,13)             -0.0253                  1.6                    !
 ! A20   A(11,7,23)              0.0232                  1.5                    !
 ! A22   A(2,11,7)              -0.0491                  3.2                    !
 ! A23   A(2,11,54)              0.062                   4.0                    !
 --------------------------------------------------------------------------------
                           ----------------------------
                           ! Normal Mode   154        !
 --------------------------                            --------------------------
 ! Name  Definition              Value          Relative Weight (%)             !
 --------------------------------------------------------------------------------
 ! R3    R(1,23)                -0.0413                  2.7                    !
 ! R15   R(7,23)                -0.0479                  3.1                    !
 ! R16   R(11,54)                0.086                   5.6                    !
 ! R34   R(23,24)                1.0684                 69.2                    !
 ! A2    A(2,1,23)              -0.0244                  1.6                    !
 ! A3    A(6,1,23)               0.0249                  1.6                    !
 ! A20   A(11,7,23)             -0.0259                  1.7                    !
 ! A21   A(13,7,23)              0.0249                  1.6                    !
 ! A55   A(1,23,7)               0.0486                  3.1                    !
 ! A57   A(7,23,24)             -0.0502                  3.3                    !
 --------------------------------------------------------------------------------
                           ----------------------------
                           ! Normal Mode   155        !
 --------------------------                            --------------------------
 ! Name  Definition              Value          Relative Weight (%)             !
 --------------------------------------------------------------------------------
 ! R36   R(25,51)               -0.0555                  3.3                    !
 ! R55   R(51,52)                0.6865                 41.2                    !
 ! R56   R(51,53)                0.7782                 46.7                    !
 ! A99   A(52,51,53)            -0.0423                  2.5                    !
 --------------------------------------------------------------------------------
                           ----------------------------
                           ! Normal Mode   156        !
 --------------------------                            --------------------------
 ! Name  Definition              Value          Relative Weight (%)             !
 --------------------------------------------------------------------------------
 ! R55   R(51,52)                0.8229                 46.5                    !
 ! R56   R(51,53)               -0.7318                 41.3                    !
 ! A97   A(25,51,52)            -0.0586                  3.3                    !
 ! A98   A(25,51,53)             0.0558                  3.1                    !
 --------------------------------------------------------------------------------
 Max01P=     41 Av01P=   24.81 Stan. Dev.=    7.66
 Max05P=      9 Av05P=    1.37 Stan. Dev.=    2.10
 Max10P=      6 Av10P=    0.49 Stan. Dev.=    1.10
 MaxNDP=     90 AvNDP=   65.78 Stan. Dev.=   16.63
 -------------------------------------------------------------------
 Center     Atomic                   Forces (Hartrees/Bohr)
 Number     Number              X              Y              Z
 -------------------------------------------------------------------
      1        6          -0.000003496    0.000000937   -0.000005233
      2        6          -0.000003839   -0.000000394   -0.000002818
      3        6          -0.000005206   -0.000000956   -0.000002996
      4        6          -0.000006139   -0.000000093   -0.000005661
      5        6          -0.000005915    0.000001284   -0.000008071
      6        6          -0.000004546    0.000001891   -0.000007953
      7        6          -0.000001587   -0.000000008   -0.000001527
      8        1          -0.000005430   -0.000002063   -0.000001098
      9        1          -0.000007265   -0.000000506   -0.000005881
     10        1          -0.000006727    0.000001888   -0.000010107
     11        7          -0.000002535   -0.000000973   -0.000000534
     12        6           0.000000127   -0.000001661    0.000003322
     13        6          -0.000000144   -0.000000223    0.000000269
     14        6           0.000000853    0.000000944   -0.000000989
     15        6           0.000002187    0.000000719    0.000000680
     16        6           0.000002446   -0.000000674    0.000003609
     17        6           0.000001502   -0.000001811    0.000005012
     18        1           0.000000665    0.000001934   -0.000003254
     19        1           0.000003455   -0.000000805    0.000004857
     20        6           0.000003206    0.000001961   -0.000000831
     21        6           0.000001821   -0.000003254    0.000008199
     22        8          -0.000000843   -0.000002455    0.000004340
     23        7          -0.000002136    0.000001091   -0.000004362
     24        1          -0.000001692    0.000002117   -0.000005802
     25        6          -0.000004029    0.000003325   -0.000010393
     26        6           0.000000617    0.000001695   -0.000002769
     27        1          -0.000000434    0.000002014   -0.000004336
     28        1           0.000001322    0.000002601   -0.000003900
     29        1          -0.000000941    0.000000350   -0.000001578
     30        6           0.000005374    0.000003869   -0.000002593
     31        1           0.000007226    0.000004103   -0.000001244
     32        1           0.000006067    0.000004775   -0.000003679
     33        1           0.000004431    0.000004238   -0.000004173
     34        6           0.000004652    0.000001589    0.000001270
     35        1           0.000006528    0.000001778    0.000002680
     36        1           0.000003176    0.000000242    0.000002532
     37        1           0.000005314    0.000002507    0.000000091
     38        6          -0.000001166   -0.000005102    0.000008982
     39        1          -0.000000893   -0.000006136    0.000011275
     40        1          -0.000002307   -0.000005222    0.000008138
     41        1          -0.000002422   -0.000005308    0.000008207
     42        6           0.000003585   -0.000003021    0.000009369
     43        1           0.000002534   -0.000003142    0.000008598
     44        1           0.000003920   -0.000004025    0.000011678
     45        1           0.000005683   -0.000001717    0.000008781
     46        6           0.000003330   -0.000003246    0.000009573
     47        1           0.000002153   -0.000003462    0.000008857
     48        1           0.000005476   -0.000001981    0.000009127
     49        1           0.000003520   -0.000004304    0.000011843
     50        8          -0.000002935    0.000003623   -0.000009989
     51        7          -0.000005114    0.000004117   -0.000013029
     52        1          -0.000006120    0.000003819   -0.000013337
     53        1          -0.000004875    0.000005092   -0.000014674
     54        1          -0.000002436   -0.000001962    0.000001524
 -------------------------------------------------------------------
 Cartesian Forces:  Max     0.000014674 RMS     0.000004858
 FormGI is forming the generalized inverse of G from B-inverse, IUseBI=4.
 Leave Link  716 at Tue Feb 12 16:21:12 2019, MaxMem=  1342177280 cpu:               9.1 elap:               0.6
 (Enter /gpfs/apps/hpc/Apps/Restricted/Gaussian/g16/Rev_B.01-AVX/g16/l9999.exe)

 ----------------------------------------------------------------------

 Electric dipole moment (input orientation):
 (Debye = 10**-18 statcoulomb cm , SI units = C m)
                  (au)            (Debye)         (10**-30 SI)
   Tot        0.269672D+01      0.685437D+01      0.228637D+02
   x         -0.128144D+01     -0.325709D+01     -0.108645D+02
   y          0.222584D+01      0.565753D+01      0.188715D+02
   z          0.822084D+00      0.208953D+01      0.696992D+01

 Dipole polarizability, Alpha (input orientation).
 (esu units = cm**3 , SI units = C**2 m**2 J**-1)
 Alpha(0;0):
               (au)            (10**-24 esu)      (10**-40 SI)
   iso        0.409303D+03      0.606524D+02      0.674849D+02
   aniso      0.367976D+03      0.545285D+02      0.606711D+02
   xx         0.438094D+03      0.649188D+02      0.722319D+02
   yx         0.266609D+02      0.395074D+01      0.439579D+01
   yy         0.603653D+03      0.894522D+02      0.995290D+02
   zx         0.131991D+02      0.195591D+01      0.217624D+01
   zy        -0.733791D+01     -0.108737D+01     -0.120986D+01
   zz         0.186161D+03      0.275862D+02      0.306938D+02

 ----------------------------------------------------------------------

 Dipole orientation:
     6          1.18807217          1.52773423          4.96235970
     6         -0.90840333          1.01864497          6.51451156
     6         -1.06963960          1.97756441          8.96325381
     6          0.95152902          3.44889833          9.77978767
     6          3.04826854          3.95539389          8.22523327
     6          3.22622063          3.01185311          5.76800223
     6         -1.50495005         -0.86934523          2.77559394
     1         -2.68485898          1.59820426         10.15706958
     1          0.91293282          4.23360607         11.66876248
     1          4.55088653          5.11779017          8.98662065
     7         -2.51161706         -0.46629954          5.07823129
     6         -5.19712363         -3.38157413          1.16309980
     6         -2.66236891         -2.31180597          0.76753087
     6         -1.41891943         -2.64912617         -1.49664430
     6         -2.53363839         -4.01011388         -3.50333828
     6         -4.96938744         -5.03239367         -3.14987242
     6         -6.33874266         -4.78569279         -0.93869427
     1          0.45195040         -1.86717133         -1.77028915
     1         -5.80341667         -6.06172678         -4.69833948
     6         -1.08234627         -4.27537749         -5.97213181
     6         -8.97101035         -5.92312274         -0.64118559
     8         -6.32053890         -3.07943698          3.23328120
     7          0.74477475          0.33146498          2.69064190
     1          2.00513091          0.46808033          1.24887793
     6          5.33656263          3.46051358          3.95045385
     6         -0.60954227         -1.59825197         -7.04162093
     1          0.46376823         -0.43506953         -5.71668785
     1          0.47196410         -1.73954672         -8.79547280
     1         -2.39461641         -0.64488413         -7.45202314
     6          1.48388745         -5.56193649         -5.44351083
     1          1.21498934         -7.46134889         -4.68186463
     1          2.54036367         -5.71458622         -7.21100222
     1          2.62819602         -4.47913771         -4.10994859
     6         -2.51971923         -5.83772986         -7.94597264
     1         -2.85896408         -7.76800447         -7.29342818
     1         -4.33431832         -4.97621205         -8.42556993
     1         -1.39499794         -5.94254608         -9.67261701
     6        -10.90708406         -3.79453109         -0.13403076
     1        -12.78817196         -4.62509787          0.06252109
     1        -10.45975124         -2.76180809          1.58853077
     1        -10.95549194         -2.46393531         -1.71341852
     6         -8.97110155         -7.82041087          1.58081671
     1         -8.54312612         -6.88047308          3.35957813
     1        -10.83370837         -8.70254624          1.72324249
     1         -7.57293975         -9.30800388          1.26543712
     6         -9.80300045         -7.33930388         -3.03614470
     1         -9.89229318         -6.08750703         -4.67671190
     1         -8.53447478         -8.90810983         -3.47880004
     1        -11.68961419         -8.11584645         -2.72813868
     8          5.24265561          2.53288411          1.79394152
     7          7.29106453          4.87766229          4.73770435
     1          7.37139967          5.66661228          6.46709327
     1          8.71697845          5.21755687          3.51938191
     1         -4.23549185         -1.21386140          5.50180157

 Electric dipole moment (dipole orientation):
 (Debye = 10**-18 statcoulomb cm , SI units = C m)
                  (au)            (Debye)         (10**-30 SI)
   Tot        0.269672D+01      0.685437D+01      0.228637D+02
   x          0.000000D+00      0.000000D+00      0.000000D+00
   y          0.000000D+00      0.000000D+00      0.000000D+00
   z          0.269672D+01      0.685437D+01      0.228637D+02

 Dipole polarizability, Alpha (dipole orientation).
 (esu units = cm**3 , SI units = C**2 m**2 J**-1)
 Alpha(0;0):
               (au)            (10**-24 esu)      (10**-40 SI)
   iso        0.409303D+03      0.606524D+02      0.674849D+02
   aniso      0.367976D+03      0.545285D+02      0.606711D+02
   xx         0.417697D+03      0.618962D+02      0.688689D+02
   yx         0.128569D+03      0.190519D+02      0.211981D+02
   yy         0.311170D+03      0.461106D+02      0.513050D+02
   zx         0.157665D+02      0.233636D+01      0.259955D+01
   zy         0.139572D+03      0.206824D+02      0.230123D+02
   zz         0.499042D+03      0.739503D+02      0.822809D+02

 ----------------------------------------------------------------------

 This type of calculation cannot be archived.


 TIME GOES, YOU SAY?  AH NO!
 ALAS, TIME STAYS, WE GO.
    -- A. DOBSON (1840-1921)
 Job cpu time:       0 days  0 hours  0 minutes 23.8 seconds.
 Elapsed time:       0 days  0 hours  0 minutes  1.8 seconds.
 File lengths (MBytes):  RWF=     72 Int=      0 D2E=      0 Chk=     60 Scr=      8
 Normal termination of Gaussian 16 at Tue Feb 12 16:21:12 2019.
