 Entering Gaussian System, Link 0=g16
 Input=cyclohexyl-monoBIP-E2PT.com
 Output=cyclohexyl-monoBIP-E2PT.log
 Initial command:
 /gpfs/apps/hpc/Apps/Restricted/Gaussian/Rev_A.03/g16/l1.exe "/gpfs/scratch60/fas/hammes_schiffer/jg2487/c44n01/Gau-174027.inp" -scrdir="/gpfs/scratch60/fas/hammes_schiffer/jg2487/c44n01/"
 Entering Link 1 = /gpfs/apps/hpc/Apps/Restricted/Gaussian/Rev_A.03/g16/l1.exe PID=    174028.
  
 Copyright (c) 1988,1990,1992,1993,1995,1998,2003,2009,2016,
            Gaussian, Inc.  All Rights Reserved.
  
 This is part of the Gaussian(R) 16 program.  It is based on
 the Gaussian(R) 09 system (copyright 2009, Gaussian, Inc.),
 the Gaussian(R) 03 system (copyright 2003, Gaussian, Inc.),
 the Gaussian(R) 98 system (copyright 1998, Gaussian, Inc.),
 the Gaussian(R) 94 system (copyright 1995, Gaussian, Inc.),
 the Gaussian 92(TM) system (copyright 1992, Gaussian, Inc.),
 the Gaussian 90(TM) system (copyright 1990, Gaussian, Inc.),
 the Gaussian 88(TM) system (copyright 1988, Gaussian, Inc.),
 the Gaussian 86(TM) system (copyright 1986, Carnegie Mellon
 University), and the Gaussian 82(TM) system (copyright 1983,
 Carnegie Mellon University). Gaussian is a federally registered
 trademark of Gaussian, Inc.
  
 This software contains proprietary and confidential information,
 including trade secrets, belonging to Gaussian, Inc.
  
 This software is provided under written license and may be
 used, copied, transmitted, or stored only in accord with that
 written license.
  
 The following legend is applicable only to US Government
 contracts under FAR:
  
                    RESTRICTED RIGHTS LEGEND
  
 Use, reproduction and disclosure by the US Government is
 subject to restrictions as set forth in subparagraphs (a)
 and (c) of the Commercial Computer Software - Restricted
 Rights clause in FAR 52.227-19.
  
 Gaussian, Inc.
 340 Quinnipiac St., Bldg. 40, Wallingford CT 06492
  
  
 ---------------------------------------------------------------
 Warning -- This program may not be used in any manner that
 competes with the business of Gaussian, Inc. or will provide
 assistance to any competitor of Gaussian, Inc.  The licensee
 of this program is prohibited from giving any competitor of
 Gaussian, Inc. access to this program.  By using this program,
 the user acknowledges that Gaussian, Inc. is engaged in the
 business of creating and licensing software in the field of
 computational chemistry and represents and warrants to the
 licensee that it is not a competitor of Gaussian, Inc. and that
 it will not use this program in any manner prohibited above.
 ---------------------------------------------------------------
  

 Cite this work as:
 Gaussian 16, Revision A.03,
 M. J. Frisch, G. W. Trucks, H. B. Schlegel, G. E. Scuseria, 
 M. A. Robb, J. R. Cheeseman, G. Scalmani, V. Barone, 
 G. A. Petersson, H. Nakatsuji, X. Li, M. Caricato, A. V. Marenich, 
 J. Bloino, B. G. Janesko, R. Gomperts, B. Mennucci, H. P. Hratchian, 
 J. V. Ortiz, A. F. Izmaylov, J. L. Sonnenberg, D. Williams-Young, 
 F. Ding, F. Lipparini, F. Egidi, J. Goings, B. Peng, A. Petrone, 
 T. Henderson, D. Ranasinghe, V. G. Zakrzewski, J. Gao, N. Rega, 
 G. Zheng, W. Liang, M. Hada, M. Ehara, K. Toyota, R. Fukuda, 
 J. Hasegawa, M. Ishida, T. Nakajima, Y. Honda, O. Kitao, H. Nakai, 
 T. Vreven, K. Throssell, J. A. Montgomery, Jr., J. E. Peralta, 
 F. Ogliaro, M. J. Bearpark, J. J. Heyd, E. N. Brothers, K. N. Kudin, 
 V. N. Staroverov, T. A. Keith, R. Kobayashi, J. Normand, 
 K. Raghavachari, A. P. Rendell, J. C. Burant, S. S. Iyengar, 
 J. Tomasi, M. Cossi, J. M. Millam, M. Klene, C. Adamo, R. Cammi, 
 J. W. Ochterski, R. L. Martin, K. Morokuma, O. Farkas, 
 J. B. Foresman, and D. J. Fox, Gaussian, Inc., Wallingford CT, 2016.
 
 ******************************************
 Gaussian 16:  ES64L-G16RevA.03 25-Dec-2016
                14-Dec-2018 
 ******************************************
 %chk=cyclohexyl-monoBIP-E2PT.chk
 %mem=10GB
 %nprocshared=16
 Will use up to   16 processors via shared memory.
 ----------------------------------------------------------------
 #p freq(ReadFC,InternalModes) Geom(AllCheck) NoSymm scale=0.9649
 ----------------------------------------------------------------
 1/18=20,29=7,38=1,114=964900/1,3;
 2/9=110,12=2,15=1,40=1/2;
 7/8=21,25=11,30=1/16;
 99/5=2/99;
 Leave Link    1 at Fri Dec 14 13:08:54 2018, MaxMem=  1342177280 cpu:               7.7 elap:               0.5
 (Enter /gpfs/apps/hpc/Apps/Restricted/Gaussian/Rev_A.03/g16/l101.exe)
 Structure from the checkpoint file:  "cyclohexyl-monoBIP-E2PT.chk"
 ----------------------------------------------------------------------
 cyclohexylimine monoBIP oxidized, with both protons transferred optimi
 zation
 ----------------------------------------------------------------------
 Charge =  1 Multiplicity = 2
 Redundant internal coordinates found in file.  (old form).
 C,0,-0.522494,2.720922,0.334065
 C,0,-1.920373,2.946812,0.271763
 C,0,-2.463177,4.228876,0.212392
 C,0,-1.570395,5.304776,0.222961
 C,0,-0.186106,5.109398,0.284154
 C,0,0.370713,3.819494,0.334037
 C,0,-1.45275,0.780255,0.352846
 H,0,-3.532801,4.387135,0.16009
 H,0,-1.960409,6.313878,0.182075
 H,0,0.477278,5.966428,0.290185
 N,0,-2.471007,1.687951,0.283828
 C,0,-3.031591,-1.196578,0.296443
 C,0,-1.67158,-0.652467,0.391436
 C,0,-0.595272,-1.510036,0.520762
 C,0,-0.768284,-2.907891,0.573466
 C,0,-2.071581,-3.446043,0.472613
 C,0,-3.186202,-2.649233,0.335069
 H,0,0.402578,-1.093778,0.592018
 H,0,-2.191689,-4.523616,0.512642
 C,0,0.420571,-3.801081,0.750214
 H,0,1.152428,-3.637097,-0.046592
 H,0,0.927532,-3.575929,1.694173
 H,0,0.13403,-4.852711,0.751573
 C,0,-4.569462,-3.206574,0.234261
 H,0,-5.210679,-2.7883,1.015108
 H,0,-5.02937,-2.936798,-0.721138
 H,0,-4.558879,-4.292528,0.326086
 O,0,-4.043749,-0.457165,0.188619
 N,0,-0.251649,1.380692,0.383431
 C,0,1.789159,3.642879,0.366127
 H,0,2.427424,4.51992,0.368273
 N,0,2.357617,2.475252,0.390379
 C,0,3.814958,2.239787,0.402374
 C,0,4.441855,2.621128,-0.946264
 C,0,4.493205,2.972796,1.565347
 H,0,3.922406,1.16341,0.55083
 C,0,5.94769,2.331678,-0.928988
 H,0,4.269676,3.68929,-1.122042
 H,0,3.947441,2.071074,-1.750988
 C,0,5.996832,2.674097,1.574422
 H,0,4.341643,4.051631,1.447197
 H,0,4.025437,2.676423,2.507393
 C,0,6.644252,3.044126,0.235184
 H,0,6.391025,2.628503,-1.883476
 H,0,6.099723,1.249891,-0.832731
 H,0,6.469737,3.218788,2.396102
 H,0,6.150556,1.605923,1.769743
 H,0,7.708461,2.792674,0.247931
 H,0,6.573672,4.129155,0.089523
 H,0,-3.441808,1.388416,0.242278
 H,0,1.726118,1.665096,0.381226
 Recover connectivity data from disk.
 ITRead=  0  0  0  0  0  0  0  0  0  0  0  0  0  0  0  0  0  0  0  0
 ITRead=  0  0  0  0  0  0  0  0  0  0  0  0  0  0  0  0  0  0  0  0
 ITRead=  0  0  0  0  0  0  0  0  0  0  0
 MicOpt= -1 -1 -1 -1 -1 -1 -1 -1 -1 -1 -1 -1 -1 -1 -1 -1 -1 -1 -1 -1
 MicOpt= -1 -1 -1 -1 -1 -1 -1 -1 -1 -1 -1 -1 -1 -1 -1 -1 -1 -1 -1 -1
 MicOpt= -1 -1 -1 -1 -1 -1 -1 -1 -1 -1 -1
 NAtoms=     51 NQM=       51 NQMF=       0 NMMI=      0 NMMIF=      0
                NMic=       0 NMicF=      0.
                    Isotopes and Nuclear Properties:
 (Nuclear quadrupole moments (NQMom) in fm**2, nuclear magnetic moments (NMagM)
  in nuclear magnetons)

  Atom         1           2           3           4           5           6           7           8           9          10
 IAtWgt=          12          12          12          12          12          12          12           1           1           1
 AtmWgt=  12.0000000  12.0000000  12.0000000  12.0000000  12.0000000  12.0000000  12.0000000   1.0078250   1.0078250   1.0078250
 NucSpn=           0           0           0           0           0           0           0           1           1           1
 AtZEff=   3.6000000   3.6000000   3.6000000   3.6000000   3.6000000   3.6000000   3.6000000   1.0000000   1.0000000   1.0000000
 NQMom=    0.0000000   0.0000000   0.0000000   0.0000000   0.0000000   0.0000000   0.0000000   0.0000000   0.0000000   0.0000000
 NMagM=    0.0000000   0.0000000   0.0000000   0.0000000   0.0000000   0.0000000   0.0000000   2.7928460   2.7928460   2.7928460
 AtZNuc=   6.0000000   6.0000000   6.0000000   6.0000000   6.0000000   6.0000000   6.0000000   1.0000000   1.0000000   1.0000000

  Atom        11          12          13          14          15          16          17          18          19          20
 IAtWgt=          14          12          12          12          12          12          12           1           1          12
 AtmWgt=  14.0030740  12.0000000  12.0000000  12.0000000  12.0000000  12.0000000  12.0000000   1.0078250   1.0078250  12.0000000
 NucSpn=           2           0           0           0           0           0           0           1           1           0
 AtZEff=   4.5500000   3.6000000   3.6000000   3.6000000   3.6000000   3.6000000   3.6000000   1.0000000   1.0000000   3.6000000
 NQMom=    2.0440000   0.0000000   0.0000000   0.0000000   0.0000000   0.0000000   0.0000000   0.0000000   0.0000000   0.0000000
 NMagM=    0.4037610   0.0000000   0.0000000   0.0000000   0.0000000   0.0000000   0.0000000   2.7928460   2.7928460   0.0000000
 AtZNuc=   7.0000000   6.0000000   6.0000000   6.0000000   6.0000000   6.0000000   6.0000000   1.0000000   1.0000000   6.0000000

  Atom        21          22          23          24          25          26          27          28          29          30
 IAtWgt=           1           1           1          12           1           1           1          16          14          12
 AtmWgt=   1.0078250   1.0078250   1.0078250  12.0000000   1.0078250   1.0078250   1.0078250  15.9949146  14.0030740  12.0000000
 NucSpn=           1           1           1           0           1           1           1           0           2           0
 AtZEff=   1.0000000   1.0000000   1.0000000   3.6000000   1.0000000   1.0000000   1.0000000   5.6000000   4.5500000   3.6000000
 NQMom=    0.0000000   0.0000000   0.0000000   0.0000000   0.0000000   0.0000000   0.0000000   0.0000000   2.0440000   0.0000000
 NMagM=    2.7928460   2.7928460   2.7928460   0.0000000   2.7928460   2.7928460   2.7928460   0.0000000   0.4037610   0.0000000
 AtZNuc=   1.0000000   1.0000000   1.0000000   6.0000000   1.0000000   1.0000000   1.0000000   8.0000000   7.0000000   6.0000000

  Atom        31          32          33          34          35          36          37          38          39          40
 IAtWgt=           1          14          12          12          12           1          12           1           1          12
 AtmWgt=   1.0078250  14.0030740  12.0000000  12.0000000  12.0000000   1.0078250  12.0000000   1.0078250   1.0078250  12.0000000
 NucSpn=           1           2           0           0           0           1           0           1           1           0
 AtZEff=   1.0000000   4.5500000   3.6000000   3.6000000   3.6000000   1.0000000   3.6000000   1.0000000   1.0000000   3.6000000
 NQMom=    0.0000000   2.0440000   0.0000000   0.0000000   0.0000000   0.0000000   0.0000000   0.0000000   0.0000000   0.0000000
 NMagM=    2.7928460   0.4037610   0.0000000   0.0000000   0.0000000   2.7928460   0.0000000   2.7928460   2.7928460   0.0000000
 AtZNuc=   1.0000000   7.0000000   6.0000000   6.0000000   6.0000000   1.0000000   6.0000000   1.0000000   1.0000000   6.0000000

  Atom        41          42          43          44          45          46          47          48          49          50
 IAtWgt=           1           1          12           1           1           1           1           1           1           1
 AtmWgt=   1.0078250   1.0078250  12.0000000   1.0078250   1.0078250   1.0078250   1.0078250   1.0078250   1.0078250   1.0078250
 NucSpn=           1           1           0           1           1           1           1           1           1           1
 AtZEff=   1.0000000   1.0000000   3.6000000   1.0000000   1.0000000   1.0000000   1.0000000   1.0000000   1.0000000   1.0000000
 NQMom=    0.0000000   0.0000000   0.0000000   0.0000000   0.0000000   0.0000000   0.0000000   0.0000000   0.0000000   0.0000000
 NMagM=    2.7928460   2.7928460   0.0000000   2.7928460   2.7928460   2.7928460   2.7928460   2.7928460   2.7928460   2.7928460
 AtZNuc=   1.0000000   1.0000000   6.0000000   1.0000000   1.0000000   1.0000000   1.0000000   1.0000000   1.0000000   1.0000000

  Atom        51
 IAtWgt=           1
 AtmWgt=   1.0078250
 NucSpn=           1
 AtZEff=   1.0000000
 NQMom=    0.0000000
 NMagM=    2.7928460
 AtZNuc=   1.0000000
 Leave Link  101 at Fri Dec 14 13:08:54 2018, MaxMem=  1342177280 cpu:               5.5 elap:               0.4
 (Enter /gpfs/apps/hpc/Apps/Restricted/Gaussian/Rev_A.03/g16/l103.exe)

 GradGradGradGradGradGradGradGradGradGradGradGradGradGradGradGradGradGrad
 Berny optimization.
 Initialization pass.
                           ----------------------------
                           !    Initial Parameters    !
                           ! (Angstroms and Degrees)  !
 --------------------------                            --------------------------
 ! Name  Definition              Value          Derivative Info.                !
 --------------------------------------------------------------------------------
 ! R1    R(1,2)                  1.4174         estimate D2E/DX2                !
 ! R2    R(1,6)                  1.4159         estimate D2E/DX2                !
 ! R3    R(1,29)                 1.3682         estimate D2E/DX2                !
 ! R4    R(2,3)                  1.3935         estimate D2E/DX2                !
 ! R5    R(2,11)                 1.3741         estimate D2E/DX2                !
 ! R6    R(3,4)                  1.3981         estimate D2E/DX2                !
 ! R7    R(3,8)                  1.0825         estimate D2E/DX2                !
 ! R8    R(4,5)                  1.3993         estimate D2E/DX2                !
 ! R9    R(4,9)                  1.0826         estimate D2E/DX2                !
 ! R10   R(5,6)                  1.4058         estimate D2E/DX2                !
 ! R11   R(5,10)                 1.0838         estimate D2E/DX2                !
 ! R12   R(6,30)                 1.4298         estimate D2E/DX2                !
 ! R13   R(7,11)                 1.3658         estimate D2E/DX2                !
 ! R14   R(7,13)                 1.4499         estimate D2E/DX2                !
 ! R15   R(7,29)                 1.3432         estimate D2E/DX2                !
 ! R16   R(11,50)                1.0168         estimate D2E/DX2                !
 ! R17   R(12,13)                1.4679         estimate D2E/DX2                !
 ! R18   R(12,17)                1.4614         estimate D2E/DX2                !
 ! R19   R(12,28)                1.2581         estimate D2E/DX2                !
 ! R20   R(13,14)                1.3822         estimate D2E/DX2                !
 ! R21   R(14,15)                1.4095         estimate D2E/DX2                !
 ! R22   R(14,18)                1.0835         estimate D2E/DX2                !
 ! R23   R(15,16)                1.4136         estimate D2E/DX2                !
 ! R24   R(15,20)                1.4975         estimate D2E/DX2                !
 ! R25   R(16,17)                1.377          estimate D2E/DX2                !
 ! R26   R(16,19)                1.085          estimate D2E/DX2                !
 ! R27   R(17,24)                1.4947         estimate D2E/DX2                !
 ! R28   R(20,21)                1.0943         estimate D2E/DX2                !
 ! R29   R(20,22)                1.0949         estimate D2E/DX2                !
 ! R30   R(20,23)                1.09           estimate D2E/DX2                !
 ! R31   R(24,25)                1.0935         estimate D2E/DX2                !
 ! R32   R(24,26)                1.0941         estimate D2E/DX2                !
 ! R33   R(24,27)                1.0899         estimate D2E/DX2                !
 ! R34   R(30,31)                1.0847         estimate D2E/DX2                !
 ! R35   R(30,32)                1.2989         estimate D2E/DX2                !
 ! R36   R(32,33)                1.4763         estimate D2E/DX2                !
 ! R37   R(32,51)                1.0272         estimate D2E/DX2                !
 ! R38   R(33,34)                1.5353         estimate D2E/DX2                !
 ! R39   R(33,35)                1.5329         estimate D2E/DX2                !
 ! R40   R(33,36)                1.0919         estimate D2E/DX2                !
 ! R41   R(34,37)                1.5335         estimate D2E/DX2                !
 ! R42   R(34,38)                1.0961         estimate D2E/DX2                !
 ! R43   R(34,39)                1.093          estimate D2E/DX2                !
 ! R44   R(35,40)                1.533          estimate D2E/DX2                !
 ! R45   R(35,41)                1.0958         estimate D2E/DX2                !
 ! R46   R(35,42)                1.0927         estimate D2E/DX2                !
 ! R47   R(37,43)                1.5323         estimate D2E/DX2                !
 ! R48   R(37,44)                1.0935         estimate D2E/DX2                !
 ! R49   R(37,45)                1.0967         estimate D2E/DX2                !
 ! R50   R(40,43)                1.5329         estimate D2E/DX2                !
 ! R51   R(40,46)                1.0934         estimate D2E/DX2                !
 ! R52   R(40,47)                1.0967         estimate D2E/DX2                !
 ! R53   R(43,48)                1.0936         estimate D2E/DX2                !
 ! R54   R(43,49)                1.097          estimate D2E/DX2                !
 ! A1    A(2,1,6)              119.902          estimate D2E/DX2                !
 ! A2    A(2,1,29)             110.6666         estimate D2E/DX2                !
 ! A3    A(6,1,29)             129.4312         estimate D2E/DX2                !
 ! A4    A(1,2,3)              122.1856         estimate D2E/DX2                !
 ! A5    A(1,2,11)             104.4079         estimate D2E/DX2                !
 ! A6    A(3,2,11)             133.4063         estimate D2E/DX2                !
 ! A7    A(2,3,4)              117.3186         estimate D2E/DX2                !
 ! A8    A(2,3,8)              121.4289         estimate D2E/DX2                !
 ! A9    A(4,3,8)              121.2525         estimate D2E/DX2                !
 ! A10   A(3,4,5)              121.6397         estimate D2E/DX2                !
 ! A11   A(3,4,9)              119.1403         estimate D2E/DX2                !
 ! A12   A(5,4,9)              119.22           estimate D2E/DX2                !
 ! A13   A(4,5,6)              121.431          estimate D2E/DX2                !
 ! A14   A(4,5,10)             119.6923         estimate D2E/DX2                !
 ! A15   A(6,5,10)             118.8764         estimate D2E/DX2                !
 ! A16   A(1,6,5)              117.5194         estimate D2E/DX2                !
 ! A17   A(1,6,30)             122.0066         estimate D2E/DX2                !
 ! A18   A(5,6,30)             120.4694         estimate D2E/DX2                !
 ! A19   A(11,7,13)            123.0616         estimate D2E/DX2                !
 ! A20   A(11,7,29)            111.7607         estimate D2E/DX2                !
 ! A21   A(13,7,29)            125.1775         estimate D2E/DX2                !
 ! A22   A(2,11,7)             108.0917         estimate D2E/DX2                !
 ! A23   A(2,11,50)            130.7019         estimate D2E/DX2                !
 ! A24   A(7,11,50)            121.2034         estimate D2E/DX2                !
 ! A25   A(13,12,17)           117.6958         estimate D2E/DX2                !
 ! A26   A(13,12,28)           122.2136         estimate D2E/DX2                !
 ! A27   A(17,12,28)           120.0903         estimate D2E/DX2                !
 ! A28   A(7,13,12)            120.2924         estimate D2E/DX2                !
 ! A29   A(7,13,14)            119.8713         estimate D2E/DX2                !
 ! A30   A(12,13,14)           119.8362         estimate D2E/DX2                !
 ! A31   A(13,14,15)           121.5478         estimate D2E/DX2                !
 ! A32   A(13,14,18)           119.0059         estimate D2E/DX2                !
 ! A33   A(15,14,18)           119.4439         estimate D2E/DX2                !
 ! A34   A(14,15,16)           119.2117         estimate D2E/DX2                !
 ! A35   A(14,15,20)           119.9008         estimate D2E/DX2                !
 ! A36   A(16,15,20)           120.8838         estimate D2E/DX2                !
 ! A37   A(15,16,17)           122.2155         estimate D2E/DX2                !
 ! A38   A(15,16,19)           118.5232         estimate D2E/DX2                !
 ! A39   A(17,16,19)           119.2599         estimate D2E/DX2                !
 ! A40   A(12,17,16)           119.4851         estimate D2E/DX2                !
 ! A41   A(12,17,24)           117.8252         estimate D2E/DX2                !
 ! A42   A(16,17,24)           122.6874         estimate D2E/DX2                !
 ! A43   A(15,20,21)           110.8331         estimate D2E/DX2                !
 ! A44   A(15,20,22)           110.2861         estimate D2E/DX2                !
 ! A45   A(15,20,23)           111.526          estimate D2E/DX2                !
 ! A46   A(21,20,22)           106.6963         estimate D2E/DX2                !
 ! A47   A(21,20,23)           108.7427         estimate D2E/DX2                !
 ! A48   A(22,20,23)           108.606          estimate D2E/DX2                !
 ! A49   A(17,24,25)           110.6012         estimate D2E/DX2                !
 ! A50   A(17,24,26)           110.852          estimate D2E/DX2                !
 ! A51   A(17,24,27)           110.9075         estimate D2E/DX2                !
 ! A52   A(25,24,26)           106.4234         estimate D2E/DX2                !
 ! A53   A(25,24,27)           109.0656         estimate D2E/DX2                !
 ! A54   A(26,24,27)           108.8647         estimate D2E/DX2                !
 ! A55   A(1,29,7)             105.0729         estimate D2E/DX2                !
 ! A56   A(6,30,31)            118.9425         estimate D2E/DX2                !
 ! A57   A(6,30,32)            123.0694         estimate D2E/DX2                !
 ! A58   A(31,30,32)           117.988          estimate D2E/DX2                !
 ! A59   A(30,32,33)           125.1394         estimate D2E/DX2                !
 ! A60   A(30,32,51)           116.0886         estimate D2E/DX2                !
 ! A61   A(33,32,51)           118.76           estimate D2E/DX2                !
 ! A62   A(32,33,34)           110.8744         estimate D2E/DX2                !
 ! A63   A(32,33,35)           111.5105         estimate D2E/DX2                !
 ! A64   A(32,33,36)           104.8023         estimate D2E/DX2                !
 ! A65   A(34,33,35)           111.5298         estimate D2E/DX2                !
 ! A66   A(34,33,36)           108.9113         estimate D2E/DX2                !
 ! A67   A(35,33,36)           108.9476         estimate D2E/DX2                !
 ! A68   A(33,34,37)           110.1312         estimate D2E/DX2                !
 ! A69   A(33,34,38)           108.5881         estimate D2E/DX2                !
 ! A70   A(33,34,39)           109.6966         estimate D2E/DX2                !
 ! A71   A(37,34,38)           109.876          estimate D2E/DX2                !
 ! A72   A(37,34,39)           110.9468         estimate D2E/DX2                !
 ! A73   A(38,34,39)           107.5355         estimate D2E/DX2                !
 ! A74   A(33,35,40)           110.1995         estimate D2E/DX2                !
 ! A75   A(33,35,41)           109.1338         estimate D2E/DX2                !
 ! A76   A(33,35,42)           109.5694         estimate D2E/DX2                !
 ! A77   A(40,35,41)           109.1545         estimate D2E/DX2                !
 ! A78   A(40,35,42)           111.2174         estimate D2E/DX2                !
 ! A79   A(41,35,42)           107.5032         estimate D2E/DX2                !
 ! A80   A(34,37,43)           111.5414         estimate D2E/DX2                !
 ! A81   A(34,37,44)           109.6973         estimate D2E/DX2                !
 ! A82   A(34,37,45)           108.8635         estimate D2E/DX2                !
 ! A83   A(43,37,44)           110.6498         estimate D2E/DX2                !
 ! A84   A(43,37,45)           109.2041         estimate D2E/DX2                !
 ! A85   A(44,37,45)           106.7491         estimate D2E/DX2                !
 ! A86   A(35,40,43)           111.2264         estimate D2E/DX2                !
 ! A87   A(35,40,46)           109.3661         estimate D2E/DX2                !
 ! A88   A(35,40,47)           109.1659         estimate D2E/DX2                !
 ! A89   A(43,40,46)           110.7104         estimate D2E/DX2                !
 ! A90   A(43,40,47)           109.3609         estimate D2E/DX2                !
 ! A91   A(46,40,47)           106.9024         estimate D2E/DX2                !
 ! A92   A(37,43,40)           111.072          estimate D2E/DX2                !
 ! A93   A(37,43,48)           110.1398         estimate D2E/DX2                !
 ! A94   A(37,43,49)           109.2524         estimate D2E/DX2                !
 ! A95   A(40,43,48)           110.2018         estimate D2E/DX2                !
 ! A96   A(40,43,49)           109.1225         estimate D2E/DX2                !
 ! A97   A(48,43,49)           106.9522         estimate D2E/DX2                !
 ! D1    D(6,1,2,3)             -0.1505         estimate D2E/DX2                !
 ! D2    D(6,1,2,11)           179.7165         estimate D2E/DX2                !
 ! D3    D(29,1,2,3)          -179.9601         estimate D2E/DX2                !
 ! D4    D(29,1,2,11)           -0.0932         estimate D2E/DX2                !
 ! D5    D(2,1,6,5)              0.6147         estimate D2E/DX2                !
 ! D6    D(2,1,6,30)          -178.6103         estimate D2E/DX2                !
 ! D7    D(29,1,6,5)          -179.6159         estimate D2E/DX2                !
 ! D8    D(29,1,6,30)            1.1591         estimate D2E/DX2                !
 ! D9    D(2,1,29,7)            -0.004          estimate D2E/DX2                !
 ! D10   D(6,1,29,7)          -179.7904         estimate D2E/DX2                !
 ! D11   D(1,2,3,4)             -0.3095         estimate D2E/DX2                !
 ! D12   D(1,2,3,8)            179.6865         estimate D2E/DX2                !
 ! D13   D(11,2,3,4)           179.8679         estimate D2E/DX2                !
 ! D14   D(11,2,3,8)            -0.1361         estimate D2E/DX2                !
 ! D15   D(1,2,11,7)             0.1522         estimate D2E/DX2                !
 ! D16   D(1,2,11,50)         -179.2072         estimate D2E/DX2                !
 ! D17   D(3,2,11,7)           179.9972         estimate D2E/DX2                !
 ! D18   D(3,2,11,50)            0.6378         estimate D2E/DX2                !
 ! D19   D(2,3,4,5)              0.2956         estimate D2E/DX2                !
 ! D20   D(2,3,4,9)           -179.7472         estimate D2E/DX2                !
 ! D21   D(8,3,4,5)           -179.7005         estimate D2E/DX2                !
 ! D22   D(8,3,4,9)              0.2567         estimate D2E/DX2                !
 ! D23   D(3,4,5,6)              0.1839         estimate D2E/DX2                !
 ! D24   D(3,4,5,10)           179.9734         estimate D2E/DX2                !
 ! D25   D(9,4,5,6)           -179.7733         estimate D2E/DX2                !
 ! D26   D(9,4,5,10)             0.0162         estimate D2E/DX2                !
 ! D27   D(4,5,6,1)             -0.6366         estimate D2E/DX2                !
 ! D28   D(4,5,6,30)           178.6009         estimate D2E/DX2                !
 ! D29   D(10,5,6,1)           179.5722         estimate D2E/DX2                !
 ! D30   D(10,5,6,30)           -1.1903         estimate D2E/DX2                !
 ! D31   D(1,6,30,31)         -179.7764         estimate D2E/DX2                !
 ! D32   D(1,6,30,32)            0.366          estimate D2E/DX2                !
 ! D33   D(5,6,30,31)            1.021          estimate D2E/DX2                !
 ! D34   D(5,6,30,32)         -178.8366         estimate D2E/DX2                !
 ! D35   D(13,7,11,2)          179.6479         estimate D2E/DX2                !
 ! D36   D(13,7,11,50)          -0.9199         estimate D2E/DX2                !
 ! D37   D(29,7,11,2)           -0.1678         estimate D2E/DX2                !
 ! D38   D(29,7,11,50)         179.2645         estimate D2E/DX2                !
 ! D39   D(11,7,13,12)           2.7304         estimate D2E/DX2                !
 ! D40   D(11,7,13,14)        -177.1479         estimate D2E/DX2                !
 ! D41   D(29,7,13,12)        -177.479          estimate D2E/DX2                !
 ! D42   D(29,7,13,14)           2.6427         estimate D2E/DX2                !
 ! D43   D(11,7,29,1)            0.1044         estimate D2E/DX2                !
 ! D44   D(13,7,29,1)         -179.7066         estimate D2E/DX2                !
 ! D45   D(17,12,13,7)         179.7233         estimate D2E/DX2                !
 ! D46   D(17,12,13,14)         -0.3983         estimate D2E/DX2                !
 ! D47   D(28,12,13,7)          -0.4664         estimate D2E/DX2                !
 ! D48   D(28,12,13,14)        179.4119         estimate D2E/DX2                !
 ! D49   D(13,12,17,16)          0.7391         estimate D2E/DX2                !
 ! D50   D(13,12,17,24)       -179.8131         estimate D2E/DX2                !
 ! D51   D(28,12,17,16)       -179.0753         estimate D2E/DX2                !
 ! D52   D(28,12,17,24)          0.3725         estimate D2E/DX2                !
 ! D53   D(7,13,14,15)         179.4545         estimate D2E/DX2                !
 ! D54   D(7,13,14,18)           0.0158         estimate D2E/DX2                !
 ! D55   D(12,13,14,15)         -0.4244         estimate D2E/DX2                !
 ! D56   D(12,13,14,18)       -179.8631         estimate D2E/DX2                !
 ! D57   D(13,14,15,16)          0.9108         estimate D2E/DX2                !
 ! D58   D(13,14,15,20)       -178.3966         estimate D2E/DX2                !
 ! D59   D(18,14,15,16)       -179.6529         estimate D2E/DX2                !
 ! D60   D(18,14,15,20)          1.0396         estimate D2E/DX2                !
 ! D61   D(14,15,16,17)         -0.5546         estimate D2E/DX2                !
 ! D62   D(14,15,16,19)        179.8866         estimate D2E/DX2                !
 ! D63   D(20,15,16,17)        178.7458         estimate D2E/DX2                !
 ! D64   D(20,15,16,19)         -0.813          estimate D2E/DX2                !
 ! D65   D(14,15,20,21)        -57.508          estimate D2E/DX2                !
 ! D66   D(14,15,20,22)         60.4212         estimate D2E/DX2                !
 ! D67   D(14,15,20,23)       -178.8178         estimate D2E/DX2                !
 ! D68   D(16,15,20,21)        123.1964         estimate D2E/DX2                !
 ! D69   D(16,15,20,22)       -118.8745         estimate D2E/DX2                !
 ! D70   D(16,15,20,23)          1.8865         estimate D2E/DX2                !
 ! D71   D(15,16,17,12)         -0.2723         estimate D2E/DX2                !
 ! D72   D(15,16,17,24)       -179.692          estimate D2E/DX2                !
 ! D73   D(19,16,17,12)        179.2834         estimate D2E/DX2                !
 ! D74   D(19,16,17,24)         -0.1364         estimate D2E/DX2                !
 ! D75   D(12,17,24,25)        -55.9473         estimate D2E/DX2                !
 ! D76   D(12,17,24,26)         61.8536         estimate D2E/DX2                !
 ! D77   D(12,17,24,27)       -177.0892         estimate D2E/DX2                !
 ! D78   D(16,17,24,25)        123.4816         estimate D2E/DX2                !
 ! D79   D(16,17,24,26)       -118.7175         estimate D2E/DX2                !
 ! D80   D(16,17,24,27)          2.3396         estimate D2E/DX2                !
 ! D81   D(6,30,32,33)         178.9781         estimate D2E/DX2                !
 ! D82   D(6,30,32,51)           0.2544         estimate D2E/DX2                !
 ! D83   D(31,30,32,33)         -0.8808         estimate D2E/DX2                !
 ! D84   D(31,30,32,51)       -179.6045         estimate D2E/DX2                !
 ! D85   D(30,32,33,34)        -69.6216         estimate D2E/DX2                !
 ! D86   D(30,32,33,35)         55.3008         estimate D2E/DX2                !
 ! D87   D(30,32,33,36)        173.0202         estimate D2E/DX2                !
 ! D88   D(51,32,33,34)        109.0709         estimate D2E/DX2                !
 ! D89   D(51,32,33,35)       -126.0067         estimate D2E/DX2                !
 ! D90   D(51,32,33,36)         -8.2873         estimate D2E/DX2                !
 ! D91   D(32,33,34,37)       -178.3534         estimate D2E/DX2                !
 ! D92   D(32,33,34,38)         61.2943         estimate D2E/DX2                !
 ! D93   D(32,33,34,39)        -55.9655         estimate D2E/DX2                !
 ! D94   D(35,33,34,37)         56.7349         estimate D2E/DX2                !
 ! D95   D(35,33,34,38)        -63.6173         estimate D2E/DX2                !
 ! D96   D(35,33,34,39)        179.1229         estimate D2E/DX2                !
 ! D97   D(36,33,34,37)        -63.5389         estimate D2E/DX2                !
 ! D98   D(36,33,34,38)        176.1089         estimate D2E/DX2                !
 ! D99   D(36,33,34,39)         58.8491         estimate D2E/DX2                !
 ! D100  D(32,33,35,40)        178.2976         estimate D2E/DX2                !
 ! D101  D(32,33,35,41)        -61.8538         estimate D2E/DX2                !
 ! D102  D(32,33,35,42)         55.6103         estimate D2E/DX2                !
 ! D103  D(34,33,35,40)        -57.1466         estimate D2E/DX2                !
 ! D104  D(34,33,35,41)         62.702          estimate D2E/DX2                !
 ! D105  D(34,33,35,42)       -179.8338         estimate D2E/DX2                !
 ! D106  D(36,33,35,40)         63.106          estimate D2E/DX2                !
 ! D107  D(36,33,35,41)       -177.0455         estimate D2E/DX2                !
 ! D108  D(36,33,35,42)        -59.5813         estimate D2E/DX2                !
 ! D109  D(33,34,37,43)        -55.6611         estimate D2E/DX2                !
 ! D110  D(33,34,37,44)       -178.6188         estimate D2E/DX2                !
 ! D111  D(33,34,37,45)         64.908          estimate D2E/DX2                !
 ! D112  D(38,34,37,43)         63.9118         estimate D2E/DX2                !
 ! D113  D(38,34,37,44)        -59.0459         estimate D2E/DX2                !
 ! D114  D(38,34,37,45)       -175.5191         estimate D2E/DX2                !
 ! D115  D(39,34,37,43)       -177.3086         estimate D2E/DX2                !
 ! D116  D(39,34,37,44)         59.7337         estimate D2E/DX2                !
 ! D117  D(39,34,37,45)        -56.7395         estimate D2E/DX2                !
 ! D118  D(33,35,40,43)         56.2879         estimate D2E/DX2                !
 ! D119  D(33,35,40,46)        178.8802         estimate D2E/DX2                !
 ! D120  D(33,35,40,47)        -64.4767         estimate D2E/DX2                !
 ! D121  D(41,35,40,43)        -63.5481         estimate D2E/DX2                !
 ! D122  D(41,35,40,46)         59.0442         estimate D2E/DX2                !
 ! D123  D(41,35,40,47)        175.6872         estimate D2E/DX2                !
 ! D124  D(42,35,40,43)        178.0023         estimate D2E/DX2                !
 ! D125  D(42,35,40,46)        -59.4054         estimate D2E/DX2                !
 ! D126  D(42,35,40,47)         57.2376         estimate D2E/DX2                !
 ! D127  D(34,37,43,40)         55.5211         estimate D2E/DX2                !
 ! D128  D(34,37,43,48)        177.8977         estimate D2E/DX2                !
 ! D129  D(34,37,43,49)        -64.9056         estimate D2E/DX2                !
 ! D130  D(44,37,43,40)        177.9333         estimate D2E/DX2                !
 ! D131  D(44,37,43,48)        -59.6901         estimate D2E/DX2                !
 ! D132  D(44,37,43,49)         57.5066         estimate D2E/DX2                !
 ! D133  D(45,37,43,40)        -64.8483         estimate D2E/DX2                !
 ! D134  D(45,37,43,48)         57.5283         estimate D2E/DX2                !
 ! D135  D(45,37,43,49)        174.725          estimate D2E/DX2                !
 ! D136  D(35,40,43,37)        -55.7187         estimate D2E/DX2                !
 ! D137  D(35,40,43,48)       -178.0593         estimate D2E/DX2                !
 ! D138  D(35,40,43,49)         64.7849         estimate D2E/DX2                !
 ! D139  D(46,40,43,37)       -177.5324         estimate D2E/DX2                !
 ! D140  D(46,40,43,48)         60.1269         estimate D2E/DX2                !
 ! D141  D(46,40,43,49)        -57.0289         estimate D2E/DX2                !
 ! D142  D(47,40,43,37)         64.9313         estimate D2E/DX2                !
 ! D143  D(47,40,43,48)        -57.4094         estimate D2E/DX2                !
 ! D144  D(47,40,43,49)       -174.5652         estimate D2E/DX2                !
 --------------------------------------------------------------------------------
 Trust Radius=3.00D-01 FncErr=1.00D-07 GrdErr=1.00D-07 EigMax=2.50D+02 EigMin=1.00D-04
 Number of steps in this run=    305 maximum allowed number of steps=    306.
 GradGradGradGradGradGradGradGradGradGradGradGradGradGradGradGradGradGrad

 Leave Link  103 at Fri Dec 14 13:08:54 2018, MaxMem=  1342177280 cpu:               0.5 elap:               0.0
 (Enter /gpfs/apps/hpc/Apps/Restricted/Gaussian/Rev_A.03/g16/l202.exe)
 Symmetry turned off by external request.
 Stoichiometry    C22H25N3O(1+,2)
 Framework group  C1[X(C22H25N3O)]
 Deg. of freedom   147
 Full point group                 C1      NOp   1
                          Input orientation:                          
 ---------------------------------------------------------------------
 Center     Atomic      Atomic             Coordinates (Angstroms)
 Number     Number       Type             X           Y           Z
 ---------------------------------------------------------------------
      1          6           0       -0.522494    2.720922    0.334065
      2          6           0       -1.920373    2.946812    0.271763
      3          6           0       -2.463177    4.228876    0.212392
      4          6           0       -1.570395    5.304776    0.222961
      5          6           0       -0.186106    5.109398    0.284154
      6          6           0        0.370713    3.819494    0.334037
      7          6           0       -1.452750    0.780255    0.352846
      8          1           0       -3.532801    4.387135    0.160090
      9          1           0       -1.960409    6.313878    0.182075
     10          1           0        0.477278    5.966428    0.290185
     11          7           0       -2.471007    1.687951    0.283828
     12          6           0       -3.031591   -1.196578    0.296443
     13          6           0       -1.671580   -0.652467    0.391436
     14          6           0       -0.595272   -1.510036    0.520762
     15          6           0       -0.768284   -2.907891    0.573466
     16          6           0       -2.071581   -3.446043    0.472613
     17          6           0       -3.186202   -2.649233    0.335069
     18          1           0        0.402578   -1.093778    0.592018
     19          1           0       -2.191689   -4.523616    0.512642
     20          6           0        0.420571   -3.801081    0.750214
     21          1           0        1.152428   -3.637097   -0.046592
     22          1           0        0.927532   -3.575929    1.694173
     23          1           0        0.134030   -4.852711    0.751573
     24          6           0       -4.569462   -3.206574    0.234261
     25          1           0       -5.210679   -2.788300    1.015108
     26          1           0       -5.029370   -2.936798   -0.721138
     27          1           0       -4.558879   -4.292528    0.326086
     28          8           0       -4.043749   -0.457165    0.188619
     29          7           0       -0.251649    1.380692    0.383431
     30          6           0        1.789159    3.642879    0.366127
     31          1           0        2.427424    4.519920    0.368273
     32          7           0        2.357617    2.475252    0.390379
     33          6           0        3.814958    2.239787    0.402374
     34          6           0        4.441855    2.621128   -0.946264
     35          6           0        4.493205    2.972796    1.565347
     36          1           0        3.922406    1.163410    0.550830
     37          6           0        5.947690    2.331678   -0.928988
     38          1           0        4.269676    3.689290   -1.122042
     39          1           0        3.947441    2.071074   -1.750988
     40          6           0        5.996832    2.674097    1.574422
     41          1           0        4.341643    4.051631    1.447197
     42          1           0        4.025437    2.676423    2.507393
     43          6           0        6.644252    3.044126    0.235184
     44          1           0        6.391025    2.628503   -1.883476
     45          1           0        6.099723    1.249891   -0.832731
     46          1           0        6.469737    3.218788    2.396102
     47          1           0        6.150556    1.605923    1.769743
     48          1           0        7.708461    2.792674    0.247931
     49          1           0        6.573672    4.129155    0.089523
     50          1           0       -3.441808    1.388416    0.242278
     51          1           0        1.726118    1.665096    0.381226
 ---------------------------------------------------------------------
 Rotational constants (GHZ):           0.2788027           0.1072259           0.0800818
 Leave Link  202 at Fri Dec 14 13:08:54 2018, MaxMem=  1342177280 cpu:               1.0 elap:               0.1
 (Enter /gpfs/apps/hpc/Apps/Restricted/Gaussian/Rev_A.03/g16/l716.exe)
 Electric field and nuclear coordinate derivatives read from checkpoint file.
 Dipole        = 2.33550626D+00 3.23644692D+00 7.83718751D-01
 Polarizability= 4.90763360D+02 2.06692170D+01 6.07829567D+02
                 1.37767147D+01-1.33096027D+01 1.76571937D+02
 Full mass-weighted force constant matrix:
 Low frequencies ---  -13.8781   -0.0014    0.0008    0.0022    5.8904   15.0471
 Low frequencies ---   31.4766   39.3654   51.7567
 Diagonal vibrational polarizability:
       52.2099320      50.6165752      99.2176161
 Harmonic frequencies (cm**-1), IR intensities (KM/Mole), Raman scattering
 activities (A**4/AMU), depolarization ratios for plane and unpolarized
 incident light, reduced masses (AMU), force constants (mDyne/A),
 and normal coordinates:
                      1                      2                      3
                      A                      A                      A
 Frequencies --     30.0786                38.6083                51.1897
 Red. masses --      4.4716                 4.2645                 4.0071
 Frc consts  --      0.0024                 0.0037                 0.0062
 IR Inten    --      0.8103                 0.3507                 1.2106
  Atom  AN      X      Y      Z        X      Y      Z        X      Y      Z
     1   6    -0.01   0.02   0.06     0.03  -0.05   0.03    -0.01   0.01  -0.04
     2   6    -0.01   0.02  -0.02     0.03  -0.04  -0.01    -0.01   0.01   0.04
     3   6    -0.01   0.01  -0.04     0.04  -0.03  -0.02    -0.01   0.02   0.14
     4   6    -0.02   0.02   0.02     0.05  -0.04  -0.00    -0.01   0.01   0.14
     5   6    -0.02   0.03   0.09     0.05  -0.05   0.03    -0.01   0.01   0.05
     6   6    -0.02   0.03   0.11     0.04  -0.06   0.04    -0.01   0.01  -0.04
     7   6    -0.00   0.02  -0.01     0.01  -0.04   0.00    -0.01   0.01  -0.05
     8   1    -0.01   0.01  -0.10     0.05  -0.03  -0.05    -0.02   0.02   0.22
     9   1    -0.02   0.02   0.01     0.06  -0.04  -0.01    -0.01   0.02   0.21
    10   1    -0.02   0.03   0.13     0.05  -0.06   0.04    -0.01   0.01   0.04
    11   7    -0.00   0.01  -0.06     0.02  -0.03  -0.03    -0.01   0.01   0.03
    12   6     0.03  -0.00  -0.09    -0.04  -0.00  -0.04     0.01  -0.00  -0.05
    13   6     0.01   0.02  -0.02    -0.03  -0.04  -0.00     0.00   0.01  -0.03
    14   6     0.02   0.03   0.07    -0.06  -0.06   0.05     0.01   0.02   0.03
    15   6     0.04   0.03   0.09    -0.10  -0.06   0.06     0.02   0.03   0.10
    16   6     0.05   0.01   0.01    -0.11  -0.02   0.02     0.03   0.01   0.06
    17   6     0.05  -0.00  -0.07    -0.08   0.00  -0.02     0.02  -0.00  -0.02
    18   1     0.01   0.05   0.13    -0.05  -0.09   0.08     0.00   0.04   0.06
    19   1     0.06   0.01   0.03    -0.13  -0.02   0.04     0.03   0.01   0.09
    20   6     0.04   0.06   0.19    -0.13  -0.09   0.12     0.02   0.05   0.21
    21   1     0.05  -0.01   0.19    -0.10  -0.13   0.14     0.06   0.02   0.24
    22   1     0.02   0.14   0.18    -0.15  -0.08   0.13    -0.04   0.10   0.23
    23   1     0.04   0.05   0.27    -0.16  -0.08   0.14     0.03   0.04   0.25
    24   6     0.06  -0.03  -0.14    -0.09   0.04  -0.05     0.03  -0.02  -0.06
    25   1     0.01  -0.02  -0.17    -0.10   0.07  -0.08     0.00  -0.02  -0.08
    26   1     0.10  -0.05  -0.16    -0.06   0.03  -0.07     0.06  -0.04  -0.07
    27   1     0.07  -0.03  -0.12    -0.12   0.04  -0.04     0.04  -0.02  -0.03
    28   8     0.03  -0.02  -0.15    -0.02   0.02  -0.09     0.01  -0.01  -0.08
    29   7    -0.01   0.03   0.06     0.01  -0.06   0.03    -0.01   0.01  -0.09
    30   6    -0.02   0.02   0.14     0.04  -0.05   0.04    -0.01  -0.00  -0.10
    31   1    -0.01   0.02   0.16     0.02  -0.04   0.03    -0.00  -0.01  -0.08
    32   7    -0.03   0.02   0.12     0.06  -0.04   0.04    -0.02  -0.01  -0.15
    33   6    -0.03  -0.01   0.05     0.07   0.01  -0.01    -0.02  -0.02  -0.12
    34   6    -0.11  -0.07  -0.00     0.01   0.11  -0.01     0.05   0.09  -0.06
    35   6     0.06   0.01  -0.01     0.07  -0.01   0.01    -0.07  -0.12  -0.03
    36   1    -0.05  -0.01   0.08     0.11   0.01  -0.07    -0.03  -0.03  -0.21
    37   6    -0.12  -0.11  -0.09     0.03   0.21  -0.06     0.05   0.07  -0.00
    38   1    -0.10  -0.07  -0.02    -0.06   0.11   0.04     0.08   0.10   0.02
    39   1    -0.18  -0.08   0.05     0.03   0.12  -0.02     0.09   0.16  -0.13
    40   6     0.05  -0.03  -0.10     0.08   0.08  -0.05    -0.07  -0.14   0.03
    41   1     0.08   0.01  -0.02     0.01  -0.01   0.07    -0.05  -0.11   0.04
    42   1     0.11   0.04   0.03     0.11  -0.08   0.01    -0.12  -0.19  -0.08
    43   6    -0.03  -0.09  -0.16     0.01   0.21  -0.05     0.00  -0.03   0.09
    44   1    -0.17  -0.15  -0.13    -0.01   0.27  -0.06     0.11   0.14   0.05
    45   1    -0.14  -0.11  -0.07     0.10   0.22  -0.10     0.03   0.06  -0.08
    46   1     0.12  -0.02  -0.15     0.07   0.05  -0.03    -0.11  -0.21   0.10
    47   1     0.04  -0.03  -0.08     0.16   0.07  -0.13    -0.09  -0.15  -0.05
    48   1    -0.03  -0.11  -0.22     0.04   0.32  -0.10    -0.00  -0.05   0.13
    49   1    -0.01  -0.09  -0.18    -0.10   0.21   0.01     0.03  -0.02   0.18
    50   1     0.00   0.01  -0.11     0.02  -0.02  -0.05    -0.01   0.01   0.05
    51   1    -0.04   0.03   0.09     0.08  -0.05   0.04    -0.02  -0.00  -0.15
                      4                      5                      6
                      A                      A                      A
 Frequencies --     60.0488                61.6774                94.5353
 Red. masses --      3.4455                 4.4532                 3.5624
 Frc consts  --      0.0073                 0.0100                 0.0188
 IR Inten    --      1.8337                 2.2507                 0.5739
  Atom  AN      X      Y      Z        X      Y      Z        X      Y      Z
     1   6     0.01  -0.02  -0.03     0.00  -0.00  -0.06    -0.01  -0.00  -0.04
     2   6     0.00  -0.02   0.04     0.00  -0.00  -0.09    -0.00   0.04   0.00
     3   6    -0.01  -0.02   0.13    -0.00  -0.00  -0.02     0.05   0.07   0.06
     4   6    -0.02  -0.02   0.14    -0.01   0.00   0.09     0.10   0.03   0.05
     5   6    -0.02  -0.01   0.06    -0.01   0.01   0.13     0.09  -0.02   0.00
     6   6    -0.00  -0.01  -0.02    -0.00   0.00   0.05     0.04  -0.04  -0.04
     7   6     0.01  -0.02  -0.04     0.01  -0.01  -0.17    -0.06   0.02  -0.03
     8   1    -0.02  -0.03   0.20    -0.00  -0.01  -0.04     0.06   0.11   0.10
     9   1    -0.03  -0.02   0.21    -0.01   0.00   0.15     0.13   0.05   0.09
    10   1    -0.02  -0.01   0.07    -0.01   0.01   0.23     0.13  -0.05   0.00
    11   7     0.00  -0.02   0.02     0.01  -0.01  -0.17    -0.04   0.05  -0.00
    12   6    -0.01  -0.00  -0.04     0.00  -0.00  -0.04    -0.03  -0.01  -0.00
    13   6    -0.00  -0.02  -0.04     0.01  -0.00  -0.14    -0.05   0.03  -0.03
    14   6    -0.02  -0.03  -0.02     0.01  -0.00  -0.14    -0.02   0.06  -0.03
    15   6    -0.04  -0.03   0.01     0.01   0.00  -0.03     0.03   0.06  -0.01
    16   6    -0.04  -0.01   0.01    -0.01   0.01   0.12     0.04   0.02  -0.01
    17   6    -0.03  -0.00  -0.02    -0.01   0.00   0.13     0.02  -0.02  -0.01
    18   1    -0.01  -0.04  -0.02     0.02  -0.00  -0.22    -0.03   0.09  -0.04
    19   1    -0.06  -0.01   0.03    -0.01   0.01   0.24     0.07   0.02   0.00
    20   6    -0.05  -0.04   0.06     0.01   0.01  -0.03     0.06   0.11   0.01
    21   1    -0.02  -0.05   0.09     0.05   0.08   0.03     0.07   0.15   0.03
    22   1    -0.09  -0.04   0.08    -0.05  -0.06   0.02     0.03   0.13   0.03
    23   1    -0.07  -0.04   0.06     0.03   0.00  -0.12     0.12   0.10   0.00
    24   6    -0.04   0.02  -0.02    -0.02   0.01   0.29     0.04  -0.07  -0.01
    25   1    -0.04   0.03  -0.03     0.07  -0.00   0.38     0.02  -0.09  -0.00
    26   1    -0.03   0.01  -0.03    -0.14   0.02   0.35     0.03  -0.08  -0.01
    27   1    -0.05   0.02  -0.01    -0.02   0.01   0.28     0.08  -0.07  -0.01
    28   8    -0.00   0.01  -0.05     0.01  -0.01  -0.10    -0.05  -0.03   0.03
    29   7     0.01  -0.02  -0.08     0.01  -0.00  -0.12    -0.04  -0.01  -0.06
    30   6    -0.00   0.02  -0.03    -0.00   0.01   0.11     0.03  -0.11  -0.03
    31   1    -0.02   0.03  -0.01    -0.01   0.01   0.20     0.05  -0.13  -0.05
    32   7     0.03   0.03  -0.05    -0.00   0.01   0.04    -0.01  -0.12   0.02
    33   6     0.03   0.06   0.01    -0.00   0.00   0.03    -0.01  -0.12   0.05
    34   6     0.07  -0.11  -0.02    -0.02   0.03   0.03    -0.04  -0.17   0.02
    35   6     0.01   0.21  -0.06     0.02  -0.03   0.04    -0.03  -0.05   0.02
    36   1     0.04   0.08   0.15    -0.01  -0.00   0.01     0.01  -0.11   0.10
    37   6     0.06  -0.13   0.05    -0.02   0.02  -0.00    -0.00   0.01   0.02
    38   1     0.08  -0.13  -0.15    -0.02   0.03   0.05    -0.15  -0.20  -0.06
    39   1     0.08  -0.20   0.03    -0.04   0.05   0.02     0.02  -0.28   0.06
    40   6     0.00   0.19   0.01     0.02  -0.04   0.00    -0.00   0.09  -0.01
    41   1     0.02   0.20  -0.19     0.03  -0.02   0.07    -0.11  -0.07   0.01
    42   1    -0.02   0.32  -0.04     0.03  -0.05   0.04     0.01  -0.08   0.03
    43   6     0.05  -0.01  -0.02    -0.00  -0.00   0.00    -0.09   0.17  -0.03
    44   1     0.09  -0.24   0.03    -0.04   0.04  -0.01    -0.05   0.01  -0.00
    45   1     0.04  -0.13   0.17    -0.02   0.02  -0.03     0.13   0.03   0.09
    46   1    -0.01   0.30  -0.05     0.04  -0.06   0.01    -0.04   0.14  -0.02
    47   1    -0.02   0.22   0.17     0.02  -0.04  -0.03     0.12   0.11  -0.02
    48   1     0.04  -0.06   0.05    -0.00  -0.00  -0.02    -0.04   0.38  -0.05
    49   1     0.10  -0.03  -0.16    -0.01  -0.00   0.03    -0.31   0.16  -0.06
    50   1     0.00  -0.02   0.04     0.01  -0.01  -0.17    -0.05   0.08   0.03
    51   1     0.05   0.02  -0.08    -0.00   0.01  -0.06    -0.03  -0.11   0.02
                      7                      8                      9
                      A                      A                      A
 Frequencies --    105.2910               116.0583               122.4617
 Red. masses --      1.1212                 4.4937                 4.5099
 Frc consts  --      0.0073                 0.0357                 0.0398
 IR Inten    --      0.0641                 5.9337                 4.0218
  Atom  AN      X      Y      Z        X      Y      Z        X      Y      Z
     1   6    -0.00   0.00   0.01    -0.03  -0.02  -0.06     0.04   0.02  -0.12
     2   6    -0.00   0.00   0.01    -0.02   0.01  -0.10     0.04  -0.02  -0.05
     3   6     0.00   0.00   0.01     0.00   0.02  -0.07    -0.01  -0.04   0.03
     4   6     0.00   0.00   0.01     0.02   0.01   0.03    -0.04  -0.01   0.05
     5   6     0.00  -0.00   0.00     0.01  -0.02   0.09    -0.03   0.03   0.00
     6   6     0.00  -0.00   0.00    -0.01  -0.03   0.03     0.01   0.04  -0.07
     7   6    -0.00   0.00   0.01    -0.07  -0.00  -0.08     0.10  -0.01  -0.08
     8   1     0.00   0.00   0.01     0.00   0.04  -0.10    -0.01  -0.07   0.10
     9   1     0.00   0.00   0.01     0.03   0.01   0.06    -0.07  -0.02   0.11
    10   1     0.00  -0.00  -0.00     0.02  -0.03   0.17    -0.06   0.05   0.04
    11   7    -0.00   0.00   0.01    -0.05   0.02  -0.12     0.08  -0.03  -0.03
    12   6     0.00  -0.00  -0.02    -0.07  -0.03   0.08     0.07   0.04   0.06
    13   6    -0.00   0.00   0.00    -0.08   0.00  -0.02     0.10  -0.01  -0.04
    14   6    -0.00   0.00   0.03    -0.06   0.03  -0.02     0.07  -0.05  -0.05
    15   6     0.00   0.00   0.01    -0.01   0.03   0.01     0.00  -0.05   0.01
    16   6     0.00   0.00   0.02     0.01  -0.01  -0.03    -0.02   0.00  -0.03
    17   6    -0.00   0.00   0.01    -0.02  -0.05  -0.02     0.02   0.05  -0.02
    18   1    -0.01   0.01   0.05    -0.07   0.06  -0.04     0.09  -0.10  -0.07
    19   1    -0.00   0.00   0.03     0.04  -0.02  -0.07    -0.05   0.00  -0.05
    20   6     0.01  -0.00  -0.04     0.02   0.08   0.06    -0.06  -0.11   0.09
    21   1    -0.28  -0.39  -0.39    -0.10  -0.11  -0.09    -0.12  -0.37  -0.02
    22   1     0.37   0.35  -0.33     0.15   0.32  -0.07     0.06   0.05  -0.01
    23   1    -0.07   0.02   0.48     0.03   0.08   0.36    -0.16  -0.08   0.35
    24   6    -0.00  -0.00   0.03     0.01  -0.10  -0.10    -0.01   0.12  -0.09
    25   1     0.01  -0.01   0.05    -0.06  -0.11  -0.15    -0.04   0.21  -0.16
    26   1    -0.02   0.01   0.04     0.06  -0.15  -0.13     0.08   0.09  -0.14
    27   1     0.00  -0.00   0.02     0.05  -0.10  -0.08    -0.08   0.12  -0.03
    28   8     0.00  -0.00  -0.06    -0.11  -0.05   0.27     0.08   0.07   0.22
    29   7    -0.00   0.00   0.01    -0.06  -0.03  -0.07     0.09   0.02  -0.14
    30   6     0.00  -0.00  -0.01    -0.00  -0.01   0.08     0.00   0.04   0.00
    31   1     0.00  -0.00  -0.01    -0.03   0.01   0.17     0.02   0.03   0.04
    32   7    -0.00  -0.00  -0.01     0.05   0.02   0.00    -0.04   0.02   0.04
    33   6    -0.00  -0.00  -0.00     0.06   0.06  -0.01    -0.06  -0.03   0.06
    34   6     0.00  -0.01  -0.00     0.07   0.09   0.00    -0.10  -0.05   0.04
    35   6    -0.01  -0.00  -0.00     0.08   0.05  -0.01    -0.04  -0.05   0.05
    36   1    -0.00  -0.00  -0.00     0.09   0.06  -0.02    -0.09  -0.04   0.06
    37   6     0.01   0.00   0.01     0.06   0.01  -0.01    -0.09   0.01  -0.00
    38   1    -0.00  -0.01  -0.01     0.12   0.11   0.05    -0.14  -0.06   0.02
    39   1     0.01  -0.01  -0.00     0.04   0.15  -0.02    -0.11  -0.08   0.07
    40   6    -0.01   0.00   0.00     0.07  -0.01   0.00    -0.03  -0.02  -0.01
    41   1    -0.01  -0.00  -0.00     0.11   0.06  -0.01    -0.05  -0.05   0.08
    42   1    -0.01  -0.00  -0.00     0.07   0.07  -0.00    -0.01  -0.08   0.06
    43   6    -0.00   0.01   0.01     0.11  -0.07   0.00    -0.10   0.05  -0.02
    44   1     0.01   0.00   0.01     0.07   0.02  -0.00    -0.13   0.01  -0.01
    45   1     0.01   0.00   0.01    -0.01   0.00  -0.05    -0.04   0.01   0.01
    46   1    -0.01   0.01   0.01     0.09  -0.03  -0.00    -0.02  -0.04  -0.01
    47   1    -0.00   0.01   0.01     0.01  -0.02   0.02     0.00  -0.02  -0.05
    48   1    -0.00   0.02   0.01     0.08  -0.18   0.01    -0.08   0.14  -0.06
    49   1    -0.01   0.01   0.00     0.23  -0.06   0.01    -0.20   0.04  -0.01
    50   1    -0.00   0.00  -0.01    -0.07   0.05  -0.04     0.08  -0.06   0.05
    51   1    -0.00  -0.00   0.00     0.09  -0.01  -0.08    -0.08   0.04  -0.01
                     10                     11                     12
                      A                      A                      A
 Frequencies --    147.1496               167.8915               185.1815
 Red. masses --      4.4161                 2.2042                 1.9373
 Frc consts  --      0.0563                 0.0366                 0.0391
 IR Inten    --      5.4447                 0.0093                 2.3336
  Atom  AN      X      Y      Z        X      Y      Z        X      Y      Z
     1   6     0.00   0.01   0.10    -0.00   0.00   0.07     0.01  -0.00  -0.09
     2   6     0.01  -0.00  -0.08    -0.00   0.00   0.05     0.00  -0.00  -0.08
     3   6     0.01  -0.01  -0.15     0.00  -0.00  -0.01    -0.00  -0.00  -0.01
     4   6    -0.00   0.00   0.02     0.00  -0.00  -0.05    -0.01   0.00   0.06
     5   6    -0.01   0.01   0.19     0.00   0.00  -0.03    -0.01   0.00   0.04
     6   6    -0.01   0.02   0.17    -0.00   0.00   0.04     0.00   0.00  -0.05
     7   6     0.03   0.00   0.01     0.00   0.00   0.01     0.00   0.00   0.01
     8   1     0.02  -0.02  -0.32     0.00  -0.00  -0.05    -0.00  -0.00   0.03
     9   1    -0.01   0.00   0.00     0.01  -0.00  -0.12    -0.01   0.00   0.14
    10   1    -0.01   0.02   0.27     0.00  -0.00  -0.07    -0.01   0.01   0.09
    11   7     0.03  -0.01  -0.15     0.00   0.00   0.03     0.00  -0.00  -0.04
    12   6     0.03   0.02   0.04     0.00  -0.00  -0.04     0.00   0.00   0.02
    13   6     0.03   0.00   0.03     0.01  -0.00  -0.08    -0.01   0.00   0.10
    14   6     0.02  -0.01   0.04     0.01  -0.01  -0.11    -0.01   0.01   0.18
    15   6     0.01  -0.01   0.02     0.01  -0.00  -0.08    -0.00  -0.00   0.04
    16   6     0.00   0.01   0.00     0.01  -0.01  -0.14     0.01  -0.00  -0.08
    17   6     0.01   0.02   0.01     0.01  -0.00  -0.08     0.00   0.00  -0.03
    18   1     0.03  -0.02   0.04     0.01  -0.01  -0.07    -0.02   0.01   0.26
    19   1    -0.01   0.01  -0.03     0.01  -0.01  -0.14     0.01  -0.01  -0.18
    20   6    -0.01  -0.03  -0.02    -0.02   0.01   0.15    -0.01  -0.02  -0.04
    21   1    -0.01  -0.02  -0.02     0.05  -0.14   0.18    -0.01   0.05  -0.03
    22   1     0.00  -0.08  -0.02    -0.09   0.17   0.15     0.00  -0.11  -0.02
    23   1    -0.03  -0.03  -0.06    -0.03   0.02   0.32    -0.01  -0.02  -0.14
    24   6     0.00   0.05  -0.03    -0.01   0.00   0.10     0.00  -0.01   0.02
    25   1    -0.02   0.09  -0.08     0.21  -0.26   0.43     0.18  -0.37   0.36
    26   1     0.06   0.02  -0.06    -0.29   0.29   0.32    -0.24   0.38   0.25
    27   1    -0.03   0.05   0.00     0.04  -0.02  -0.23     0.07  -0.04  -0.42
    28   8     0.03   0.02   0.06    -0.00   0.00   0.05     0.00   0.00  -0.02
    29   7     0.01   0.02   0.14     0.00   0.00   0.05     0.00  -0.00  -0.05
    30   6    -0.01  -0.00   0.07    -0.00  -0.00   0.00     0.00   0.01  -0.00
    31   1    -0.00  -0.00   0.14     0.00  -0.00  -0.03    -0.00   0.01   0.03
    32   7    -0.02  -0.01  -0.16    -0.00  -0.00  -0.01     0.00   0.01  -0.00
    33   6    -0.03  -0.04  -0.13    -0.00  -0.00  -0.01     0.00   0.00   0.01
    34   6     0.06  -0.11  -0.11     0.01  -0.01  -0.01    -0.00  -0.00   0.01
    35   6    -0.11  -0.02  -0.10    -0.01   0.00  -0.01     0.01  -0.00   0.01
    36   1    -0.05  -0.04  -0.09    -0.00  -0.00  -0.01    -0.01   0.00   0.01
    37   6     0.08  -0.03   0.03     0.01  -0.00   0.01    -0.00   0.00  -0.00
    38   1     0.03  -0.13  -0.21     0.01  -0.01  -0.02    -0.01  -0.01   0.00
    39   1     0.16  -0.19  -0.11     0.02  -0.01  -0.01    -0.01  -0.01   0.01
    40   6    -0.10   0.04   0.01    -0.01   0.01   0.00     0.01  -0.01  -0.00
    41   1    -0.12  -0.03  -0.10    -0.01   0.00  -0.02     0.01  -0.00   0.01
    42   1    -0.17  -0.03  -0.13    -0.02   0.00  -0.01     0.01  -0.01   0.01
    43   6    -0.05   0.07   0.05    -0.00   0.00   0.01    -0.00   0.00  -0.01
    44   1     0.14  -0.05   0.05     0.02  -0.01   0.01    -0.01   0.00  -0.00
    45   1     0.14  -0.02   0.10     0.01  -0.00   0.01     0.00   0.00  -0.00
    46   1    -0.19   0.07   0.04    -0.02   0.01   0.01     0.01  -0.02  -0.00
    47   1    -0.06   0.05   0.03    -0.01   0.01   0.01     0.01  -0.01  -0.02
    48   1    -0.03   0.18   0.12    -0.00   0.01   0.02     0.00   0.01  -0.01
    49   1    -0.16   0.06   0.02    -0.00   0.00   0.00    -0.01   0.00  -0.00
    50   1     0.03  -0.02  -0.18     0.00  -0.00   0.01     0.00   0.00  -0.01
    51   1    -0.04  -0.00  -0.18    -0.00  -0.00   0.02     0.00   0.01  -0.03
                     13                     14                     15
                      A                      A                      A
 Frequencies --    199.6415               230.7381               235.2900
 Red. masses --      3.4001                 3.3850                 3.2777
 Frc consts  --      0.0798                 0.1062                 0.1069
 IR Inten    --      1.0267                 1.6052                 2.6942
  Atom  AN      X      Y      Z        X      Y      Z        X      Y      Z
     1   6     0.04  -0.02   0.02    -0.03  -0.06  -0.03     0.00  -0.02  -0.05
     2   6     0.05   0.01  -0.03    -0.04  -0.07  -0.03    -0.00  -0.01   0.08
     3   6     0.11   0.04   0.00    -0.06  -0.09  -0.01     0.02  -0.01  -0.06
     4   6     0.13   0.02   0.04    -0.05  -0.09   0.02     0.03  -0.02  -0.14
     5   6     0.12  -0.02   0.02    -0.05  -0.09   0.02     0.02  -0.03   0.03
     6   6     0.05  -0.04   0.00    -0.03  -0.08  -0.01     0.00  -0.03   0.06
     7   6     0.01  -0.00  -0.01    -0.01  -0.03   0.01     0.00  -0.01  -0.01
     8   1     0.11   0.08  -0.01    -0.06  -0.10  -0.00     0.02  -0.00  -0.11
     9   1     0.15   0.03   0.07    -0.05  -0.09   0.04     0.04  -0.02  -0.26
    10   1     0.17  -0.06   0.01    -0.06  -0.08   0.04     0.02  -0.03   0.12
    11   7     0.03   0.02  -0.06    -0.02  -0.06  -0.00    -0.01  -0.01   0.19
    12   6     0.01  -0.01   0.00     0.03   0.05  -0.00     0.00   0.02   0.01
    13   6     0.01  -0.01   0.00     0.01   0.01   0.03     0.01   0.00  -0.01
    14   6     0.01  -0.01   0.01     0.01   0.04   0.06     0.01   0.01  -0.03
    15   6     0.01  -0.01   0.01     0.02   0.05  -0.03     0.00   0.02   0.04
    16   6     0.01  -0.01  -0.00     0.02   0.04  -0.11    -0.01   0.02   0.10
    17   6     0.01  -0.01   0.00     0.02   0.07  -0.03    -0.00   0.02   0.02
    18   1     0.01  -0.02   0.01     0.00   0.05   0.12     0.01   0.01  -0.09
    19   1     0.00  -0.01  -0.01     0.02   0.04  -0.16    -0.01   0.03   0.14
    20   6    -0.00  -0.03   0.00     0.10   0.16   0.02     0.02   0.02  -0.03
    21   1    -0.00  -0.03   0.00     0.10   0.22   0.03    -0.01   0.06  -0.05
    22   1     0.00  -0.04   0.00     0.06   0.26   0.02     0.05   0.00  -0.04
    23   1    -0.02  -0.02  -0.00     0.23   0.13   0.06     0.04   0.02  -0.05
    24   6     0.01  -0.00  -0.00    -0.05   0.22   0.05     0.01   0.03  -0.07
    25   1     0.01  -0.02   0.01     0.00   0.48  -0.05     0.03  -0.21   0.08
    26   1     0.00   0.01   0.01     0.01   0.10  -0.01    -0.04   0.29   0.02
    27   1     0.01  -0.00  -0.02    -0.22   0.23   0.26     0.03   0.00  -0.37
    28   8     0.02   0.00   0.01     0.03   0.07  -0.00     0.01   0.03  -0.02
    29   7     0.02  -0.02   0.04    -0.01  -0.04  -0.01     0.01  -0.02  -0.18
    30   6     0.02  -0.09  -0.05    -0.03  -0.10   0.00    -0.01  -0.04   0.20
    31   1     0.05  -0.12  -0.16    -0.03  -0.10   0.01    -0.02  -0.04   0.46
    32   7    -0.03  -0.10   0.02     0.00  -0.09   0.01    -0.01  -0.04  -0.04
    33   6    -0.04   0.02  -0.01     0.02  -0.03   0.00    -0.01   0.01  -0.02
    34   6    -0.11   0.14   0.00     0.01   0.03   0.01    -0.01   0.00  -0.03
    35   6    -0.11   0.12  -0.03     0.01   0.00  -0.01    -0.04   0.04  -0.03
    36   1     0.09   0.04  -0.03     0.07  -0.02  -0.01     0.03   0.01   0.00
    37   6    -0.13   0.03  -0.03     0.01   0.01  -0.01    -0.01   0.02  -0.02
    38   1    -0.06   0.17   0.12     0.01   0.04   0.06    -0.03   0.00  -0.03
    39   1    -0.16   0.25  -0.04     0.00   0.07  -0.01     0.00  -0.01  -0.02
    40   6    -0.13   0.08   0.04     0.01   0.03   0.00    -0.05   0.00   0.00
    41   1    -0.10   0.11  -0.13    -0.01  -0.00  -0.03     0.01   0.05  -0.05
    42   1    -0.15   0.20  -0.03     0.02   0.01  -0.00    -0.06   0.08  -0.03
    43   6    -0.05  -0.11   0.01     0.04  -0.02  -0.00    -0.02  -0.01   0.01
    44   1    -0.10   0.06  -0.00     0.00   0.02  -0.00     0.00   0.06   0.00
    45   1    -0.24   0.01  -0.11    -0.01   0.01  -0.03    -0.00   0.02  -0.05
    46   1    -0.12   0.16  -0.02     0.00   0.07  -0.02    -0.05  -0.00   0.01
    47   1    -0.19   0.10   0.18     0.02   0.04   0.05    -0.08   0.00   0.01
    48   1    -0.11  -0.35   0.05     0.02  -0.09   0.01    -0.03  -0.05   0.03
    49   1     0.20  -0.10  -0.01     0.11  -0.02  -0.01     0.03  -0.01   0.02
    50   1     0.02   0.04  -0.07    -0.01  -0.10   0.00    -0.01  -0.02   0.22
    51   1    -0.03  -0.11   0.10     0.03  -0.11   0.01     0.01  -0.05  -0.30
                     16                     17                     18
                      A                      A                      A
 Frequencies --    239.3099               256.4744               261.2898
 Red. masses --      2.2565                 2.1443                 3.3180
 Frc consts  --      0.0761                 0.0831                 0.1335
 IR Inten    --      2.6067                 0.1495                 0.9143
  Atom  AN      X      Y      Z        X      Y      Z        X      Y      Z
     1   6    -0.01  -0.02   0.06    -0.05   0.02  -0.01     0.11  -0.03  -0.00
     2   6    -0.01  -0.03   0.00    -0.05   0.02   0.00     0.11  -0.04   0.01
     3   6    -0.03  -0.04   0.03    -0.02   0.04  -0.02     0.06  -0.07  -0.01
     4   6    -0.04  -0.04   0.03     0.00   0.02  -0.01     0.00  -0.03  -0.01
     5   6    -0.03  -0.03  -0.03    -0.00   0.00   0.01     0.00   0.01   0.01
     6   6    -0.01  -0.02  -0.00    -0.02  -0.01   0.01     0.05   0.03   0.01
     7   6     0.01  -0.01  -0.02    -0.03   0.02  -0.00     0.07  -0.03   0.01
     8   1    -0.03  -0.06   0.04    -0.02   0.06  -0.03     0.05  -0.13  -0.02
     9   1    -0.04  -0.04   0.04     0.02   0.03  -0.03    -0.04  -0.05  -0.02
    10   1    -0.04  -0.02  -0.10     0.01  -0.00   0.03    -0.02   0.03   0.02
    11   7     0.01  -0.03  -0.08    -0.04   0.02   0.02     0.10  -0.03   0.03
    12   6    -0.00   0.02   0.01     0.03   0.00   0.00    -0.07  -0.00  -0.00
    13   6     0.01   0.00  -0.04     0.02   0.00   0.00    -0.05  -0.01   0.01
    14   6     0.01   0.01  -0.09     0.03   0.00   0.00    -0.08  -0.01   0.01
    15   6    -0.00   0.02   0.05     0.02  -0.00   0.00    -0.05  -0.01  -0.01
    16   6    -0.02   0.04   0.17     0.02   0.01  -0.00    -0.04  -0.03  -0.02
    17   6    -0.01   0.03   0.04     0.02   0.01   0.00    -0.05  -0.02  -0.01
    18   1     0.02   0.01  -0.19     0.03   0.00   0.00    -0.08  -0.01   0.03
    19   1    -0.03   0.04   0.24     0.02   0.01  -0.00    -0.05  -0.03  -0.03
    20   6     0.03   0.05  -0.04    -0.04  -0.08   0.00     0.06   0.16  -0.00
    21   1    -0.02   0.11  -0.07    -0.02  -0.14   0.01     0.03   0.28  -0.02
    22   1     0.07   0.04  -0.06    -0.03  -0.14   0.01     0.04   0.27  -0.02
    23   1     0.07   0.04  -0.05    -0.13  -0.06  -0.01     0.26   0.11   0.02
    24   6     0.00   0.04  -0.12     0.03   0.01   0.00    -0.05  -0.05   0.01
    25   1     0.04  -0.32   0.11     0.03   0.02   0.00    -0.06  -0.04  -0.01
    26   1    -0.07   0.44   0.03     0.03   0.01   0.00    -0.05  -0.10  -0.00
    27   1     0.04   0.00  -0.57     0.02   0.01   0.01    -0.02  -0.05   0.04
    28   8     0.00   0.03   0.03     0.03   0.00  -0.00    -0.07  -0.01  -0.01
    29   7     0.00  -0.01   0.08    -0.04   0.03  -0.03     0.10  -0.05  -0.01
    30   6    -0.00  -0.02  -0.08    -0.02  -0.04   0.02     0.05   0.10   0.00
    31   1    -0.00  -0.02  -0.21    -0.02  -0.04   0.03     0.04   0.11   0.03
    32   7     0.00  -0.02   0.02    -0.01  -0.04  -0.02     0.01   0.09  -0.04
    33   6     0.01  -0.01   0.00     0.01  -0.03  -0.04    -0.02   0.03  -0.04
    34   6     0.01   0.01   0.01     0.04   0.11   0.02    -0.01   0.07  -0.01
    35   6     0.01  -0.02   0.01    -0.01  -0.12   0.03    -0.04  -0.08   0.04
    36   1     0.01  -0.02  -0.02     0.01  -0.05  -0.17    -0.06   0.01  -0.12
    37   6     0.00  -0.01   0.01    -0.01  -0.10   0.04    -0.06  -0.10   0.03
    38   1     0.03   0.02   0.04     0.20   0.16   0.18     0.12   0.10   0.06
    39   1    -0.00   0.04  -0.00    -0.03   0.30  -0.07    -0.08   0.18  -0.04
    40   6     0.02   0.02   0.00     0.06   0.13   0.00    -0.02   0.06   0.01
    41   1    -0.03  -0.03   0.01    -0.17  -0.13   0.17    -0.13  -0.08   0.18
    42   1     0.03  -0.04   0.01     0.07  -0.30   0.01    -0.02  -0.23   0.01
    43   6     0.02  -0.00  -0.01     0.02   0.00  -0.05    -0.08   0.01  -0.03
    44   1     0.00  -0.03  -0.00     0.04  -0.28   0.01     0.01  -0.27   0.01
    45   1    -0.01  -0.01   0.02    -0.14  -0.11   0.19    -0.17  -0.11   0.19
    46   1     0.01   0.05  -0.01    -0.03   0.33  -0.08    -0.05   0.16  -0.04
    47   1     0.05   0.03   0.03     0.24   0.18   0.17     0.09   0.09   0.08
    48   1     0.02  -0.01  -0.01     0.03   0.01  -0.03    -0.06   0.11  -0.03
    49   1     0.02  -0.00  -0.03     0.02  -0.01  -0.18    -0.18  -0.00  -0.12
    50   1     0.01  -0.04  -0.09    -0.04   0.01   0.02     0.09  -0.01   0.03
    51   1     0.00  -0.02   0.14    -0.01  -0.04  -0.03    -0.01   0.11  -0.05
                     19                     20                     21
                      A                      A                      A
 Frequencies --    294.6970               309.9430               334.2116
 Red. masses --      3.5281                 5.0080                 2.4520
 Frc consts  --      0.1805                 0.2834                 0.1614
 IR Inten    --      4.8977                 0.7294                 2.6393
  Atom  AN      X      Y      Z        X      Y      Z        X      Y      Z
     1   6    -0.03   0.04   0.00    -0.00  -0.00   0.16    -0.01  -0.05  -0.03
     2   6    -0.03   0.05   0.01     0.00  -0.00   0.16    -0.01  -0.02  -0.05
     3   6     0.03   0.10   0.01    -0.01  -0.01   0.18     0.02   0.00   0.08
     4   6     0.06   0.08  -0.01     0.00  -0.01  -0.11     0.05  -0.02   0.01
     5   6     0.05   0.05  -0.01     0.00  -0.01  -0.16     0.04  -0.06  -0.08
     6   6    -0.01   0.03   0.00    -0.00  -0.00   0.12    -0.00  -0.06  -0.03
     7   6    -0.04   0.01  -0.01     0.01  -0.01  -0.22    -0.04  -0.01   0.03
     8   1     0.04   0.14   0.02    -0.01  -0.01   0.24     0.02   0.03   0.21
     9   1     0.07   0.09  -0.01     0.01  -0.02  -0.26     0.07  -0.01   0.06
    10   1     0.08   0.02  -0.02     0.01  -0.01  -0.37     0.07  -0.08  -0.12
    11   7    -0.04   0.03  -0.01     0.01  -0.01  -0.16    -0.03  -0.01  -0.05
    12   6     0.06  -0.11   0.00     0.00   0.00  -0.10     0.00   0.01   0.03
    13   6     0.01  -0.04  -0.00     0.01  -0.00  -0.15    -0.01  -0.00   0.04
    14   6    -0.03  -0.09   0.00    -0.01   0.03   0.22     0.03   0.02  -0.04
    15   6    -0.02  -0.11   0.02    -0.00   0.02   0.14     0.03   0.03  -0.03
    16   6    -0.01  -0.17   0.04     0.01   0.02  -0.02     0.03   0.04  -0.01
    17   6     0.02  -0.11   0.00     0.01   0.00  -0.09     0.01   0.02   0.03
    18   1    -0.00  -0.14  -0.01    -0.04   0.05   0.39     0.02   0.05  -0.08
    19   1    -0.01  -0.17   0.05     0.02   0.02  -0.04     0.03   0.04  -0.02
    20   6     0.10   0.03  -0.00    -0.00  -0.02  -0.07    -0.01  -0.03   0.01
    21   1     0.06   0.15  -0.02    -0.09   0.09  -0.12     0.02  -0.10   0.03
    22   1     0.10   0.12  -0.02     0.10  -0.19  -0.08    -0.03  -0.04   0.02
    23   1     0.28  -0.01   0.01    -0.03  -0.01  -0.22    -0.09  -0.01   0.04
    24   6    -0.10   0.21  -0.03     0.00   0.01   0.04     0.02   0.03  -0.01
    25   1     0.03   0.30   0.02     0.07   0.11   0.04     0.00   0.01  -0.01
    26   1    -0.06   0.45   0.01    -0.06  -0.08   0.05     0.05   0.05  -0.01
    27   1    -0.41   0.19  -0.15    -0.01   0.02   0.16     0.02   0.02  -0.03
    28   8     0.03  -0.16   0.01    -0.02   0.00   0.10     0.01   0.02  -0.02
    29   7    -0.05   0.02  -0.00     0.01  -0.01  -0.08    -0.04  -0.04   0.07
    30   6    -0.01   0.03   0.01    -0.00   0.00   0.09    -0.01  -0.01   0.09
    31   1    -0.01   0.04   0.02    -0.00   0.00   0.09    -0.05   0.01   0.25
    32   7    -0.00   0.04  -0.01     0.00   0.00   0.02     0.03   0.02  -0.04
    33   6    -0.00   0.02  -0.00    -0.00   0.00  -0.03     0.02   0.11  -0.01
    34   6     0.01   0.00  -0.00     0.01   0.00  -0.03     0.02   0.06  -0.03
    35   6     0.01   0.00   0.01    -0.01  -0.00  -0.02     0.01   0.07   0.02
    36   1    -0.02   0.02  -0.00     0.00   0.00  -0.04     0.07   0.11  -0.01
    37   6     0.00  -0.02   0.01     0.01  -0.01   0.01    -0.02  -0.10   0.04
    38   1     0.03   0.00  -0.02     0.02   0.00  -0.04     0.15   0.08  -0.05
    39   1     0.00  -0.00   0.00     0.02   0.00  -0.04    -0.05   0.10  -0.01
    40   6     0.01  -0.02  -0.01    -0.02   0.00   0.01    -0.03  -0.09  -0.02
    41   1     0.02   0.00   0.03    -0.01  -0.00  -0.01     0.11   0.08   0.05
    42   1     0.01  -0.01   0.00    -0.03  -0.01  -0.03    -0.04   0.07  -0.00
    43   6    -0.01   0.01  -0.00    -0.01   0.00   0.01    -0.10   0.05  -0.01
    44   1     0.01  -0.05   0.00     0.03  -0.02   0.01     0.06  -0.29   0.02
    45   1    -0.01  -0.02   0.05    -0.00  -0.01   0.02    -0.12  -0.09   0.24
    46   1     0.02  -0.04   0.01    -0.03   0.01   0.01     0.06  -0.27   0.04
    47   1    -0.00  -0.02  -0.04    -0.01   0.00   0.01    -0.13  -0.14  -0.21
    48   1     0.00   0.06  -0.01    -0.01   0.02   0.02    -0.04   0.31  -0.04
    49   1    -0.06   0.01  -0.00    -0.02   0.00   0.01    -0.37   0.04  -0.01
    50   1    -0.04   0.06  -0.01     0.01   0.00  -0.09    -0.04   0.00  -0.06
    51   1    -0.00   0.04  -0.02     0.00   0.00  -0.02     0.08  -0.01  -0.17
                     22                     23                     24
                      A                      A                      A
 Frequencies --    341.5129               375.0468               379.6067
 Red. masses --      2.7734                 3.7557                 3.9634
 Frc consts  --      0.1906                 0.3113                 0.3365
 IR Inten    --      0.9031                24.6835                 6.0743
  Atom  AN      X      Y      Z        X      Y      Z        X      Y      Z
     1   6     0.01   0.02  -0.05    -0.04   0.04   0.02     0.03  -0.02   0.03
     2   6     0.01   0.01  -0.08    -0.04   0.03   0.03     0.02  -0.01   0.05
     3   6    -0.02   0.01   0.14    -0.02   0.05   0.02     0.01  -0.03   0.03
     4   6    -0.02   0.01  -0.00    -0.00   0.04  -0.02    -0.00  -0.02  -0.04
     5   6    -0.01   0.03  -0.15    -0.00   0.03  -0.00    -0.01  -0.01   0.00
     6   6     0.00   0.03  -0.03    -0.03   0.02   0.04     0.01   0.00   0.08
     7   6     0.02   0.01   0.05     0.02   0.00  -0.05    -0.01  -0.00  -0.08
     8   1    -0.03   0.00   0.37    -0.02   0.07   0.00     0.00  -0.05   0.01
     9   1    -0.03   0.01   0.06     0.01   0.04  -0.06    -0.01  -0.03  -0.11
    10   1    -0.02   0.03  -0.22     0.01   0.02  -0.02    -0.01  -0.00  -0.04
    11   7     0.03   0.00  -0.08    -0.00   0.00  -0.03     0.00  -0.00  -0.04
    12   6    -0.00  -0.00   0.06     0.04   0.01   0.08    -0.04   0.00   0.18
    13   6     0.00   0.00   0.06     0.06  -0.03   0.04    -0.04   0.02   0.09
    14   6    -0.01  -0.02  -0.05    -0.01  -0.09   0.01     0.00   0.05  -0.02
    15   6    -0.02  -0.02  -0.05    -0.07  -0.10  -0.03     0.05   0.04  -0.08
    16   6    -0.02  -0.03  -0.02    -0.08  -0.07  -0.06     0.06   0.03  -0.09
    17   6    -0.02  -0.01   0.05    -0.07  -0.01   0.08     0.02   0.01   0.19
    18   1     0.00  -0.05  -0.10     0.03  -0.19  -0.00    -0.01   0.09  -0.10
    19   1    -0.02  -0.03  -0.06    -0.13  -0.07  -0.16     0.10   0.01  -0.30
    20   6     0.01   0.02   0.02     0.05   0.08   0.01    -0.03  -0.04   0.03
    21   1     0.03   0.01   0.04     0.03   0.20   0.01     0.05  -0.19   0.07
    22   1    -0.04   0.10   0.02    -0.00   0.25  -0.00    -0.08  -0.03   0.05
    23   1     0.06   0.01   0.07     0.29   0.02   0.07    -0.16  -0.01   0.10
    24   6    -0.01  -0.03  -0.01    -0.04  -0.14  -0.01     0.03   0.08  -0.03
    25   1    -0.06  -0.07  -0.03    -0.16  -0.26  -0.04    -0.09   0.02  -0.10
    26   1     0.03  -0.01  -0.03     0.00  -0.19  -0.04     0.21   0.23  -0.08
    27   1     0.01  -0.03  -0.05     0.11  -0.14  -0.04    -0.05   0.07  -0.18
    28   8     0.01   0.00  -0.04     0.17   0.17  -0.02    -0.09  -0.10  -0.10
    29   7     0.02   0.03   0.08    -0.00   0.04  -0.07     0.01  -0.03  -0.12
    30   6    -0.00   0.00   0.19    -0.04  -0.06  -0.01     0.02   0.04  -0.01
    31   1     0.00  -0.00   0.46    -0.01  -0.09  -0.16     0.02   0.04  -0.28
    32   7    -0.02  -0.02  -0.02    -0.03  -0.07   0.11     0.01   0.04   0.18
    33   6    -0.02  -0.07  -0.02    -0.01   0.00  -0.04     0.01  -0.00  -0.09
    34   6    -0.01  -0.03  -0.01     0.02   0.04  -0.03    -0.02  -0.01  -0.11
    35   6    -0.03  -0.05  -0.02     0.02   0.03  -0.07     0.01  -0.04  -0.07
    36   1    -0.04  -0.07  -0.02     0.05   0.01  -0.06     0.00  -0.01  -0.13
    37   6     0.02   0.06  -0.03     0.02  -0.03   0.06    -0.00   0.01   0.02
    38   1    -0.08  -0.04   0.00     0.09   0.06  -0.00    -0.04  -0.02  -0.18
    39   1     0.04  -0.05  -0.03     0.05   0.09  -0.07     0.05  -0.08  -0.10
    40   6    -0.00   0.08   0.01     0.01  -0.04  -0.02    -0.01   0.01   0.04
    41   1    -0.08  -0.06  -0.00     0.08   0.03  -0.15    -0.01  -0.04  -0.08
    42   1    -0.00  -0.08  -0.02    -0.01   0.11  -0.06    -0.06  -0.04  -0.11
    43   6     0.06  -0.04   0.01     0.01   0.05   0.01    -0.01  -0.01   0.05
    44   1    -0.01   0.18  -0.01     0.07  -0.18   0.04     0.07  -0.02   0.05
    45   1     0.07   0.06  -0.16    -0.04  -0.03   0.20    -0.02   0.00   0.04
    46   1    -0.08   0.22  -0.04    -0.00  -0.14   0.05    -0.07   0.08   0.04
    47   1     0.08   0.12   0.17    -0.05  -0.07  -0.13     0.03   0.02   0.11
    48   1     0.02  -0.21   0.04     0.03   0.13  -0.00    -0.01  -0.01   0.03
    49   1     0.24  -0.03  -0.00    -0.09   0.04   0.02    -0.00  -0.00   0.05
    50   1     0.03  -0.00  -0.09     0.01  -0.04  -0.02    -0.00   0.02  -0.04
    51   1    -0.04  -0.00  -0.26    -0.02  -0.08   0.22     0.00   0.05   0.37
[...]
 ! A18   A(5,6,30)               0.0367                  1.5                    !
 ! A57   A(6,30,32)              0.0256                  1.1                    !
 ! A58   A(31,30,32)            -0.0167                  0.7                    !
 --------------------------------------------------------------------------------
                           ----------------------------
                           ! Normal Mode   142        !
 --------------------------                            --------------------------
 ! Name  Definition              Value          Relative Weight (%)             !
 --------------------------------------------------------------------------------
 ! R7    R(3,8)                 -0.1081                  4.5                    !
 ! R9    R(4,9)                  0.2464                 10.2                    !
 ! R10   R(5,6)                  0.0168                  0.7                    !
 ! R11   R(5,10)                -0.3618                 14.9                    !
 ! R12   R(6,30)                -0.0411                  1.7                    !
 ! R34   R(30,31)                0.9819                 40.6                    !
 ! R35   R(30,32)               -0.0433                  1.8                    !
 ! R37   R(32,51)                0.0692                  2.9                    !
 ! R42   R(34,38)                0.0218                  0.9                    !
 ! R45   R(35,41)                0.0349                  1.4                    !
 ! A10   A(3,4,5)                0.025                   1.0                    !
 ! A12   A(5,4,9)               -0.0169                  0.7                    !
 ! A13   A(4,5,6)               -0.0243                  1.0                    !
 ! A14   A(4,5,10)               0.0178                  0.7                    !
 ! A17   A(1,6,30)              -0.0246                  1.0                    !
 ! A18   A(5,6,30)               0.0174                  0.7                    !
 ! A56   A(6,30,31)             -0.0242                  1.0                    !
 ! A57   A(6,30,32)              0.0562                  2.3                    !
 ! A58   A(31,30,32)            -0.032                   1.3                    !
 ! A59   A(30,32,33)             0.0331                  1.4                    !
 ! A60   A(30,32,51)            -0.0299                  1.2                    !
 --------------------------------------------------------------------------------
                           ----------------------------
                           ! Normal Mode   143        !
 --------------------------                            --------------------------
 ! Name  Definition              Value          Relative Weight (%)             !
 --------------------------------------------------------------------------------
 ! R20   R(13,14)               -0.0459                  3.0                    !
 ! R21   R(14,15)               -0.0448                  3.0                    !
 ! R22   R(14,18)                1.0822                 71.5                    !
 ! R26   R(16,19)                0.0399                  2.6                    !
 ! A29   A(7,13,14)              0.0299                  2.0                    !
 ! A30   A(12,13,14)            -0.0278                  1.8                    !
 ! A31   A(13,14,15)             0.057                   3.8                    !
 ! A32   A(13,14,18)            -0.0276                  1.8                    !
 ! A33   A(15,14,18)            -0.0294                  1.9                    !
 ! A34   A(14,15,16)            -0.0283                  1.9                    !
 ! A35   A(14,15,20)             0.0291                  1.9                    !
 --------------------------------------------------------------------------------
                           ----------------------------
                           ! Normal Mode   144        !
 --------------------------                            --------------------------
 ! Name  Definition              Value          Relative Weight (%)             !
 --------------------------------------------------------------------------------
 ! R4    R(2,3)                  0.0316                  1.3                    !
 ! R7    R(3,8)                 -0.667                  28.2                    !
 ! R8    R(4,5)                 -0.0483                  2.0                    !
 ! R9    R(4,9)                  0.7584                 32.1                    !
 ! R11   R(5,10)                 0.3697                 15.6                    !
 ! R34   R(30,31)               -0.1269                  5.4                    !
 ! A7    A(2,3,4)               -0.0549                  2.3                    !
 ! A9    A(4,3,8)                0.0426                  1.8                    !
 ! A10   A(3,4,5)                0.0479                  2.0                    !
 ! A11   A(3,4,9)               -0.0397                  1.7                    !
 --------------------------------------------------------------------------------
                           ----------------------------
                           ! Normal Mode   145        !
 --------------------------                            --------------------------
 ! Name  Definition              Value          Relative Weight (%)             !
 --------------------------------------------------------------------------------
 ! R4    R(2,3)                  0.0386                  1.9                    !
 ! R6    R(3,4)                  0.0659                  3.2                    !
 ! R7    R(3,8)                 -0.8442                 41.6                    !
 ! R8    R(4,5)                  0.0333                  1.6                    !
 ! R9    R(4,9)                 -0.665                  32.7                    !
 ! R11   R(5,10)                -0.1528                  7.5                    !
 ! R34   R(30,31)                0.0176                  0.9                    !
 ! A4    A(1,2,3)                0.0215                  1.1                    !
 ! A6    A(3,2,11)              -0.0237                  1.2                    !
 ! A7    A(2,3,4)               -0.0271                  1.3                    !
 ! A8    A(2,3,8)                0.022                   1.1                    !
 ! A12   A(5,4,9)                0.0167                  0.8                    !
 ! A14   A(4,5,10)              -0.0164                  0.8                    !
 --------------------------------------------------------------------------------
                           ----------------------------
                           ! Normal Mode   146        !
 --------------------------                            --------------------------
 ! Name  Definition              Value          Relative Weight (%)             !
 --------------------------------------------------------------------------------
 ! R34   R(30,31)                0.0766                  4.5                    !
 ! R35   R(30,32)                0.0324                  1.9                    !
 ! R36   R(32,33)                0.0346                  2.0                    !
 ! R37   R(32,51)               -1.0681                 62.9                    !
 ! A57   A(6,30,32)             -0.0241                  1.4                    !
 ! A58   A(31,30,32)             0.0298                  1.8                    !
 ! A59   A(30,32,33)            -0.05                    2.9                    !
 ! A61   A(33,32,51)             0.0521                  3.1                    !
 ! A63   A(32,33,35)             0.0143                  0.8                    !
 ! A64   A(32,33,36)            -0.0257                  1.5                    !
 ! D91   D(32,33,34,37)          0.0247                  1.5                    !
 ! D92   D(32,33,34,38)          0.0248                  1.5                    !
 ! D93   D(32,33,34,39)          0.0251                  1.5                    !
 ! D100  D(32,33,35,40)         -0.0213                  1.3                    !
 ! D101  D(32,33,35,41)         -0.0209                  1.2                    !
 ! D102  D(32,33,35,42)         -0.0216                  1.3                    !
 --------------------------------------------------------------------------------
                           ----------------------------
                           ! Normal Mode   147        !
 --------------------------                            --------------------------
 ! Name  Definition              Value          Relative Weight (%)             !
 --------------------------------------------------------------------------------
 ! R5    R(2,11)                 0.0488                  3.4                    !
 ! R13   R(7,11)                 0.0428                  3.0                    !
 ! R16   R(11,50)               -1.0716                 75.0                    !
 ! A5    A(1,2,11)               0.0234                  1.6                    !
 ! A6    A(3,2,11)              -0.0247                  1.7                    !
 ! A19   A(11,7,13)             -0.0246                  1.7                    !
 ! A20   A(11,7,29)              0.0243                  1.7                    !
 ! A22   A(2,11,7)              -0.0482                  3.4                    !
 ! A23   A(2,11,50)              0.0555                  3.9                    !
 --------------------------------------------------------------------------------
 -------------------------------------------------------------------
 Center     Atomic                   Forces (Hartrees/Bohr)
 Number     Number              X              Y              Z
 -------------------------------------------------------------------
      1        6           0.000001779    0.000001081   -0.000006020
      2        6           0.000002316    0.000002999   -0.000009362
      3        6           0.000003828    0.000003298   -0.000012984
      4        6           0.000006215    0.000002839   -0.000012963
      5        6           0.000005138    0.000001449   -0.000009745
      6        6           0.000003259    0.000000940   -0.000006068
      7        6          -0.000001148    0.000002643   -0.000004429
      8        1           0.000004418    0.000005125   -0.000015407
      9        1           0.000006644    0.000003446   -0.000015661
     10        1           0.000005971    0.000000194   -0.000009892
     11        7           0.000000869    0.000004886   -0.000008252
     12        6          -0.000003465    0.000004345   -0.000004585
     13        6          -0.000001257    0.000003652   -0.000002122
     14        6          -0.000004372    0.000001776    0.000001648
     15        6          -0.000005046    0.000002542    0.000003894
     16        6          -0.000006106    0.000003266    0.000002184
     17        6          -0.000004147    0.000005189   -0.000001649
     18        1          -0.000002873    0.000001202    0.000002899
     19        1          -0.000007184    0.000004566    0.000003759
     20        6          -0.000006723    0.000001278    0.000008279
     21        1          -0.000004916   -0.000001023    0.000009146
     22        1          -0.000008732    0.000002481    0.000008423
     23        1          -0.000008130    0.000001713    0.000009255
     24        6          -0.000005368    0.000007414   -0.000003773
     25        1          -0.000005997    0.000008513   -0.000005957
     26        1          -0.000002575    0.000005281   -0.000004827
     27        1          -0.000006561    0.000006052   -0.000001494
     28        8          -0.000001390    0.000005740   -0.000007460
     29        7           0.000000877    0.000001926   -0.000002958
     30        6           0.000003047   -0.000000042   -0.000002853
     31        1           0.000003931   -0.000002181   -0.000003156
     32        7           0.000002408   -0.000002350    0.000000550
     33        6           0.000001297   -0.000003032    0.000003916
     34        6           0.000004735   -0.000007252    0.000004342
     35        6          -0.000000577   -0.000002392    0.000004622
     36        1          -0.000000382   -0.000003442    0.000006206
     37        6           0.000003890   -0.000008525    0.000008375
     38        1           0.000006186   -0.000006574    0.000002278
     39        1           0.000005716   -0.000007530    0.000004653
     40        6          -0.000001049   -0.000003866    0.000007929
     41        1           0.000001473   -0.000002249    0.000001757
     42        1          -0.000002344    0.000000252    0.000003351
     43        6           0.000003307   -0.000007945    0.000008607
     44        1           0.000006639   -0.000010724    0.000008612
     45        1           0.000002728   -0.000008683    0.000010720
     46        1          -0.000001628   -0.000003091    0.000007740
     47        1          -0.000002297   -0.000003701    0.000010005
     48        1           0.000002078   -0.000008463    0.000011115
     49        1           0.000004233   -0.000006968    0.000006304
     50        1           0.000000874    0.000005067   -0.000009604
     51        1           0.000000410   -0.000001123    0.000000651
 -------------------------------------------------------------------
 Cartesian Forces:  Max     0.000015661 RMS     0.000005626
 FormGI is forming the generalized inverse of G from B-inverse, IUseBI=4.
 Leave Link  716 at Fri Dec 14 13:08:54 2018, MaxMem=  1342177280 cpu:               4.3 elap:               0.3
 (Enter /gpfs/apps/hpc/Apps/Restricted/Gaussian/Rev_A.03/g16/l9999.exe)

 ----------------------------------------------------------------------

 Electric dipole moment (input orientation):
 (Debye = 10**-18 statcoulomb cm , SI units = C m)
                  (au)            (Debye)         (10**-30 SI)
   Tot        0.406736D+01      0.103382D+02      0.344845D+02
   x          0.233551D+01      0.593626D+01      0.198012D+02
   y          0.323645D+01      0.822623D+01      0.274397D+02
   z          0.783719D+00      0.199201D+01      0.664464D+01

 Dipole polarizability, Alpha (input orientation).
 (esu units = cm**3 , SI units = C**2 m**2 J**-1)
 Alpha(0;0):
               (au)            (10**-24 esu)      (10**-40 SI)
   iso        0.425055D+03      0.629866D+02      0.700821D+02
   aniso      0.389338D+03      0.576940D+02      0.641932D+02
   xx         0.490763D+03      0.727236D+02      0.809159D+02
   yx         0.206692D+02      0.306286D+01      0.340789D+01
   yy         0.607830D+03      0.900710D+02      0.100218D+03
   zx         0.137767D+02      0.204150D+01      0.227147D+01
   zy        -0.133096D+02     -0.197228D+01     -0.219446D+01
   zz         0.176572D+03      0.261653D+02      0.291128D+02

 ----------------------------------------------------------------------

 Dipole orientation:
     6         -3.04667086          2.28810515          3.64607752
     6         -5.05394040          3.59401574          2.44622702
     6         -6.65983021          5.21283333          3.76342742
     6         -6.22946129          5.50444561          6.35383671
     6         -4.26165885          4.23709067          7.58441722
     6         -2.62063508          2.61544367          6.26718079
     6         -2.93409327          1.21284593         -0.27463938
     1         -8.18016171          6.20611572          2.82171057
     1         -7.44889064          6.74286884          7.43311236
     1         -3.98157852          4.50756030          9.59514543
     7         -4.90859310          2.85847658         -0.03979236
     6         -3.60057361          0.68810874         -4.98089056
     6         -2.23798316          0.04308488         -2.65239278
     6         -0.28583765         -1.69081550         -2.72691461
     6          0.43236382         -2.88405793         -4.99738316
     6         -0.85063586         -2.26599679         -7.25751422
     6         -2.80226468         -0.54586788         -7.31891999
     1          0.69987766         -2.15131207         -0.99228878
     1         -0.27820680         -3.19453915         -8.99359094
     6          2.51272662         -4.80232131         -4.98607600
     1          4.25930385         -3.98861922         -4.23549718
     1          2.01862346         -6.38913371         -3.75370293
     1          2.88076861         -5.52923090         -6.87781893
     6         -4.18075643          0.11300178         -9.69465618
     1         -6.20759845         -0.22613068         -9.47716407
     1         -3.96819784          2.12172200        -10.13592514
     1         -3.47976760         -0.99546660        -11.28266307
     8         -5.40280047          2.23848782         -5.00659923
     7         -1.75967064          0.82964585          1.94266986
     6         -0.58813282          1.38375691          7.55244135
     1         -0.35266915          1.69599316          9.56458857
     7          1.00809693         -0.09937282          6.42236685
     6          3.15818939         -1.38117285          7.65402365
     6          5.20269115          0.53098492          8.41661192
     6          2.29298345         -2.97108055          9.91565981
     1          3.92324031         -2.63642946          6.20614576
     6          7.45244140         -0.84172178          9.62163612
     1          4.38472648          1.86690306          9.77194928
     1          5.79807399          1.61131379          6.76000381
     6          4.55530918         -4.33805666         11.10139443
     1          1.43295040         -1.72727977         11.33040094
     1          0.84574121         -4.31172646          9.30545708
     6          6.62586163         -2.46491918         11.87266523
     1          8.87944952          0.53572145         10.20147599
     1          8.33901149         -2.05556053          8.19499548
     1          3.91600030         -5.43306531         12.73277306
     1          5.32684269         -5.69001167          9.73312964
     1          8.24917546         -3.47742194         12.65397112
     1          5.90192466         -1.23288502         13.37457593
     1         -5.97405722          3.35820176         -1.55873697
     1          0.74106756         -0.34667531          4.51558353

 Electric dipole moment (dipole orientation):
 (Debye = 10**-18 statcoulomb cm , SI units = C m)
                  (au)            (Debye)         (10**-30 SI)
   Tot        0.406736D+01      0.103382D+02      0.344845D+02
   x          0.000000D+00      0.000000D+00      0.000000D+00
   y          0.000000D+00      0.000000D+00      0.000000D+00
   z          0.406736D+01      0.103382D+02      0.344845D+02

 Dipole polarizability, Alpha (dipole orientation).
 (esu units = cm**3 , SI units = C**2 m**2 J**-1)
 Alpha(0;0):
               (au)            (10**-24 esu)      (10**-40 SI)
   iso        0.425055D+03      0.629866D+02      0.700821D+02
   aniso      0.389338D+03      0.576940D+02      0.641932D+02
   xx         0.375589D+03      0.556565D+02      0.619262D+02
   yx        -0.159918D+03     -0.236974D+02     -0.263669D+02
   yy         0.328501D+03      0.486789D+02      0.541626D+02
   zx         0.108729D+02      0.161119D+01      0.179269D+01
   zy         0.910522D+02      0.134925D+02      0.150125D+02
   zz         0.571075D+03      0.846245D+02      0.941575D+02

 ----------------------------------------------------------------------

 This type of calculation cannot be archived.


 Just remember, when you're over the hill, you begin to pick up speed.
 -- Charles Schulz
 Job cpu time:       0 days  0 hours  0 minutes 19.6 seconds.
 Elapsed time:       0 days  0 hours  0 minutes  1.4 seconds.
 File lengths (MBytes):  RWF=     72 Int=      0 D2E=      0 Chk=     52 Scr=      8
 Normal termination of Gaussian 16 at Fri Dec 14 13:08:54 2018.
