 Entering Gaussian System, Link 0=g16
 Input=cyclohexyl-monoBIP-E2PT.com
 Output=cyclohexyl-monoBIP-E2PT.log
 Initial command:
 /gpfs/apps/hpc/Apps/Restricted/Gaussian/Rev_A.03/g16/l1.exe "/gpfs/scratch60/fas/hammes_schiffer/jg2487/c42n01/Gau-72203.inp" -scrdir="/gpfs/scratch60/fas/hammes_schiffer/jg2487/c42n01/"
 Entering Link 1 = /gpfs/apps/hpc/Apps/Restricted/Gaussian/Rev_A.03/g16/l1.exe PID=     72204.
  
 Copyright (c) 1988,1990,1992,1993,1995,1998,2003,2009,2016,
            Gaussian, Inc.  All Rights Reserved.
  
 This is part of the Gaussian(R) 16 program.  It is based on
 the Gaussian(R) 09 system (copyright 2009, Gaussian, Inc.),
 the Gaussian(R) 03 system (copyright 2003, Gaussian, Inc.),
 the Gaussian(R) 98 system (copyright 1998, Gaussian, Inc.),
 the Gaussian(R) 94 system (copyright 1995, Gaussian, Inc.),
 the Gaussian 92(TM) system (copyright 1992, Gaussian, Inc.),
 the Gaussian 90(TM) system (copyright 1990, Gaussian, Inc.),
 the Gaussian 88(TM) system (copyright 1988, Gaussian, Inc.),
 the Gaussian 86(TM) system (copyright 1986, Carnegie Mellon
 University), and the Gaussian 82(TM) system (copyright 1983,
 Carnegie Mellon University). Gaussian is a federally registered
 trademark of Gaussian, Inc.
  
 This software contains proprietary and confidential information,
 including trade secrets, belonging to Gaussian, Inc.
  
 This software is provided under written license and may be
 used, copied, transmitted, or stored only in accord with that
 written license.
  
 The following legend is applicable only to US Government
 contracts under FAR:
  
                    RESTRICTED RIGHTS LEGEND
  
 Use, reproduction and disclosure by the US Government is
 subject to restrictions as set forth in subparagraphs (a)
 and (c) of the Commercial Computer Software - Restricted
 Rights clause in FAR 52.227-19.
  
 Gaussian, Inc.
 340 Quinnipiac St., Bldg. 40, Wallingford CT 06492
  
  
 ---------------------------------------------------------------
 Warning -- This program may not be used in any manner that
 competes with the business of Gaussian, Inc. or will provide
 assistance to any competitor of Gaussian, Inc.  The licensee
 of this program is prohibited from giving any competitor of
 Gaussian, Inc. access to this program.  By using this program,
 the user acknowledges that Gaussian, Inc. is engaged in the
 business of creating and licensing software in the field of
 computational chemistry and represents and warrants to the
 licensee that it is not a competitor of Gaussian, Inc. and that
 it will not use this program in any manner prohibited above.
 ---------------------------------------------------------------
  

 Cite this work as:
 Gaussian 16, Revision A.03,
 M. J. Frisch, G. W. Trucks, H. B. Schlegel, G. E. Scuseria, 
 M. A. Robb, J. R. Cheeseman, G. Scalmani, V. Barone, 
 G. A. Petersson, H. Nakatsuji, X. Li, M. Caricato, A. V. Marenich, 
 J. Bloino, B. G. Janesko, R. Gomperts, B. Mennucci, H. P. Hratchian, 
 J. V. Ortiz, A. F. Izmaylov, J. L. Sonnenberg, D. Williams-Young, 
 F. Ding, F. Lipparini, F. Egidi, J. Goings, B. Peng, A. Petrone, 
 T. Henderson, D. Ranasinghe, V. G. Zakrzewski, J. Gao, N. Rega, 
 G. Zheng, W. Liang, M. Hada, M. Ehara, K. Toyota, R. Fukuda, 
 J. Hasegawa, M. Ishida, T. Nakajima, Y. Honda, O. Kitao, H. Nakai, 
 T. Vreven, K. Throssell, J. A. Montgomery, Jr., J. E. Peralta, 
 F. Ogliaro, M. J. Bearpark, J. J. Heyd, E. N. Brothers, K. N. Kudin, 
 V. N. Staroverov, T. A. Keith, R. Kobayashi, J. Normand, 
 K. Raghavachari, A. P. Rendell, J. C. Burant, S. S. Iyengar, 
 J. Tomasi, M. Cossi, J. M. Millam, M. Klene, C. Adamo, R. Cammi, 
 J. W. Ochterski, R. L. Martin, K. Morokuma, O. Farkas, 
 J. B. Foresman, and D. J. Fox, Gaussian, Inc., Wallingford CT, 2016.
 
 ******************************************
 Gaussian 16:  ES64L-G16RevA.03 25-Dec-2016
                21-Dec-2018 
 ******************************************
 %chk=cyclohexyl-monoBIP-E2PT.chk
 %mem=10GB
 %nprocshared=16
 Will use up to   16 processors via shared memory.
 ----------------------------------------------------------------
 #p freq(ReadFC,InternalModes) Geom(AllCheck) NoSymm scale=0.9631
 ----------------------------------------------------------------
 1/18=20,29=7,38=1,114=963100/1,3;
 2/9=110,12=2,15=1,40=1/2;
 7/8=21,25=11,30=1/16;
 99/5=2/99;
 Leave Link    1 at Fri Dec 21 18:10:17 2018, MaxMem=  1342177280 cpu:               7.1 elap:               0.5
 (Enter /gpfs/apps/hpc/Apps/Restricted/Gaussian/Rev_A.03/g16/l101.exe)
 Structure from the checkpoint file:  "cyclohexyl-monoBIP-E2PT.chk"
 ----------------------------------------------------------------------
 cyclohexylimine monoBIP oxidized, with both protons transferred optimi
 zation
 ----------------------------------------------------------------------
 Charge =  1 Multiplicity = 2
 Redundant internal coordinates found in file.  (old form).
 C,0,-0.528073,2.742572,0.404197
 C,0,-1.921436,2.980419,0.301064
 C,0,-2.451704,4.265809,0.212852
 C,0,-1.550554,5.334546,0.236214
 C,0,-0.170901,5.128033,0.34149
 C,0,0.373135,3.833989,0.422135
 C,0,-1.476384,0.809681,0.407582
 H,0,-3.518023,4.431858,0.127295
 H,0,-1.930374,6.346308,0.172118
 H,0,0.499623,5.979267,0.359395
 N,0,-2.483178,1.726588,0.30658
 C,0,-3.060964,-1.168598,0.322868
 C,0,-1.70032,-0.62425,0.437828
 C,0,-0.618761,-1.472146,0.564038
 C,0,-0.778274,-2.871255,0.5914
 C,0,-2.082512,-3.404573,0.48172
 C,0,-3.216356,-2.628047,0.346212
 H,0,0.371068,-1.04112,0.641954
 H,0,-2.192376,-4.477493,0.503258
 C,0,0.459199,-3.752098,0.713784
 C,0,-4.606812,-3.245875,0.216236
 O,0,-4.050358,-0.398428,0.206418
 N,0,-0.27065,1.400503,0.468577
 C,0,1.787972,3.650514,0.50348
 H,0,2.430179,4.524088,0.516824
 N,0,2.355102,2.483039,0.555389
 C,0,3.811698,2.240422,0.578233
 C,0,4.37411,2.283257,-0.851756
 C,0,4.545498,3.216531,1.502221
 H,0,3.920675,1.227482,0.972873
 C,0,5.881885,2.008778,-0.845664
 H,0,4.175034,3.277269,-1.268103
 H,0,3.849587,1.55551,-1.476661
 C,0,6.049534,2.919561,1.503417
 H,0,4.393648,4.242088,1.149431
 H,0,4.129611,3.150194,2.510928
 C,0,6.626406,2.971977,0.084535
 H,0,6.267702,2.081106,-1.866169
 H,0,6.056732,0.978853,-0.512923
 H,0,6.556979,3.637847,2.153217
 H,0,6.224463,1.925172,1.931036
 H,0,7.692933,2.730728,0.101749
 H,0,6.537202,3.994116,-0.303449
 H,0,-3.454655,1.434506,0.245286
 H,0,1.725533,1.671887,0.519365
 C,0,-5.220585,-2.855122,-1.147165
 H,0,-6.21585,-3.299278,-1.23563
 H,0,-5.310687,-1.774484,-1.246725
 H,0,-4.606579,-3.23266,-1.969068
 C,0,-5.513324,-2.742357,1.361939
 H,0,-5.640604,-1.662598,1.314981
 H,0,-6.494929,-3.217532,1.282137
 H,0,-5.085021,-3.00335,2.333502
 C,0,-4.556574,-4.779951,0.292061
 H,0,-3.953177,-5.208439,-0.512409
 H,0,-4.152113,-5.123254,1.247789
 H,0,-5.571438,-5.17152,0.195653
 C,0,0.118948,-5.247457,0.757546
 H,0,-0.501333,-5.496081,1.622661
 H,0,-0.40405,-5.567051,-0.147173
 H,0,1.043267,-5.824453,0.831086
 C,0,1.222104,-3.377016,2.002363
 H,0,2.122267,-3.991682,2.082176
 H,0,1.527087,-2.328136,1.99899
 H,0,0.606277,-3.554211,2.887099
 C,0,1.365468,-3.482177,-0.508343
 H,0,0.854895,-3.749925,-1.436629
 H,0,1.651813,-2.429646,-0.565562
 H,0,2.27645,-4.081239,-0.430712
 Recover connectivity data from disk.
 ITRead=  0  0  0  0  0  0  0  0  0  0  0  0  0  0  0  0  0  0  0  0
 ITRead=  0  0  0  0  0  0  0  0  0  0  0  0  0  0  0  0  0  0  0  0
 ITRead=  0  0  0  0  0  0  0  0  0  0  0  0  0  0  0  0  0  0  0  0
 ITRead=  0  0  0  0  0  0  0  0  0
 MicOpt= -1 -1 -1 -1 -1 -1 -1 -1 -1 -1 -1 -1 -1 -1 -1 -1 -1 -1 -1 -1
 MicOpt= -1 -1 -1 -1 -1 -1 -1 -1 -1 -1 -1 -1 -1 -1 -1 -1 -1 -1 -1 -1
 MicOpt= -1 -1 -1 -1 -1 -1 -1 -1 -1 -1 -1 -1 -1 -1 -1 -1 -1 -1 -1 -1
 MicOpt= -1 -1 -1 -1 -1 -1 -1 -1 -1
 NAtoms=     69 NQM=       69 NQMF=       0 NMMI=      0 NMMIF=      0
                NMic=       0 NMicF=      0.
                    Isotopes and Nuclear Properties:
 (Nuclear quadrupole moments (NQMom) in fm**2, nuclear magnetic moments (NMagM)
  in nuclear magnetons)

  Atom         1           2           3           4           5           6           7           8           9          10
 IAtWgt=          12          12          12          12          12          12          12           1           1           1
 AtmWgt=  12.0000000  12.0000000  12.0000000  12.0000000  12.0000000  12.0000000  12.0000000   1.0078250   1.0078250   1.0078250
 NucSpn=           0           0           0           0           0           0           0           1           1           1
 AtZEff=   3.6000000   3.6000000   3.6000000   3.6000000   3.6000000   3.6000000   3.6000000   1.0000000   1.0000000   1.0000000
 NQMom=    0.0000000   0.0000000   0.0000000   0.0000000   0.0000000   0.0000000   0.0000000   0.0000000   0.0000000   0.0000000
 NMagM=    0.0000000   0.0000000   0.0000000   0.0000000   0.0000000   0.0000000   0.0000000   2.7928460   2.7928460   2.7928460
 AtZNuc=   6.0000000   6.0000000   6.0000000   6.0000000   6.0000000   6.0000000   6.0000000   1.0000000   1.0000000   1.0000000

  Atom        11          12          13          14          15          16          17          18          19          20
 IAtWgt=          14          12          12          12          12          12          12           1           1          12
 AtmWgt=  14.0030740  12.0000000  12.0000000  12.0000000  12.0000000  12.0000000  12.0000000   1.0078250   1.0078250  12.0000000
 NucSpn=           2           0           0           0           0           0           0           1           1           0
 AtZEff=   4.5500000   3.6000000   3.6000000   3.6000000   3.6000000   3.6000000   3.6000000   1.0000000   1.0000000   3.6000000
 NQMom=    2.0440000   0.0000000   0.0000000   0.0000000   0.0000000   0.0000000   0.0000000   0.0000000   0.0000000   0.0000000
 NMagM=    0.4037610   0.0000000   0.0000000   0.0000000   0.0000000   0.0000000   0.0000000   2.7928460   2.7928460   0.0000000
 AtZNuc=   7.0000000   6.0000000   6.0000000   6.0000000   6.0000000   6.0000000   6.0000000   1.0000000   1.0000000   6.0000000

  Atom        21          22          23          24          25          26          27          28          29          30
 IAtWgt=          12          16          14          12           1          14          12          12          12           1
 AtmWgt=  12.0000000  15.9949146  14.0030740  12.0000000   1.0078250  14.0030740  12.0000000  12.0000000  12.0000000   1.0078250
 NucSpn=           0           0           2           0           1           2           0           0           0           1
 AtZEff=   3.6000000   5.6000000   4.5500000   3.6000000   1.0000000   4.5500000   3.6000000   3.6000000   3.6000000   1.0000000
 NQMom=    0.0000000   0.0000000   2.0440000   0.0000000   0.0000000   2.0440000   0.0000000   0.0000000   0.0000000   0.0000000
 NMagM=    0.0000000   0.0000000   0.4037610   0.0000000   2.7928460   0.4037610   0.0000000   0.0000000   0.0000000   2.7928460
 AtZNuc=   6.0000000   8.0000000   7.0000000   6.0000000   1.0000000   7.0000000   6.0000000   6.0000000   6.0000000   1.0000000

  Atom        31          32          33          34          35          36          37          38          39          40
 IAtWgt=          12           1           1          12           1           1          12           1           1           1
 AtmWgt=  12.0000000   1.0078250   1.0078250  12.0000000   1.0078250   1.0078250  12.0000000   1.0078250   1.0078250   1.0078250
 NucSpn=           0           1           1           0           1           1           0           1           1           1
 AtZEff=   3.6000000   1.0000000   1.0000000   3.6000000   1.0000000   1.0000000   3.6000000   1.0000000   1.0000000   1.0000000
 NQMom=    0.0000000   0.0000000   0.0000000   0.0000000   0.0000000   0.0000000   0.0000000   0.0000000   0.0000000   0.0000000
 NMagM=    0.0000000   2.7928460   2.7928460   0.0000000   2.7928460   2.7928460   0.0000000   2.7928460   2.7928460   2.7928460
 AtZNuc=   6.0000000   1.0000000   1.0000000   6.0000000   1.0000000   1.0000000   6.0000000   1.0000000   1.0000000   1.0000000

  Atom        41          42          43          44          45          46          47          48          49          50
 IAtWgt=           1           1           1           1           1          12           1           1           1          12
 AtmWgt=   1.0078250   1.0078250   1.0078250   1.0078250   1.0078250  12.0000000   1.0078250   1.0078250   1.0078250  12.0000000
 NucSpn=           1           1           1           1           1           0           1           1           1           0
 AtZEff=   1.0000000   1.0000000   1.0000000   1.0000000   1.0000000   3.6000000   1.0000000   1.0000000   1.0000000   3.6000000
 NQMom=    0.0000000   0.0000000   0.0000000   0.0000000   0.0000000   0.0000000   0.0000000   0.0000000   0.0000000   0.0000000
 NMagM=    2.7928460   2.7928460   2.7928460   2.7928460   2.7928460   0.0000000   2.7928460   2.7928460   2.7928460   0.0000000
 AtZNuc=   1.0000000   1.0000000   1.0000000   1.0000000   1.0000000   6.0000000   1.0000000   1.0000000   1.0000000   6.0000000

  Atom        51          52          53          54          55          56          57          58          59          60
 IAtWgt=           1           1           1          12           1           1           1          12           1           1
 AtmWgt=   1.0078250   1.0078250   1.0078250  12.0000000   1.0078250   1.0078250   1.0078250  12.0000000   1.0078250   1.0078250
 NucSpn=           1           1           1           0           1           1           1           0           1           1
 AtZEff=   1.0000000   1.0000000   1.0000000   3.6000000   1.0000000   1.0000000   1.0000000   3.6000000   1.0000000   1.0000000
 NQMom=    0.0000000   0.0000000   0.0000000   0.0000000   0.0000000   0.0000000   0.0000000   0.0000000   0.0000000   0.0000000
 NMagM=    2.7928460   2.7928460   2.7928460   0.0000000   2.7928460   2.7928460   2.7928460   0.0000000   2.7928460   2.7928460
 AtZNuc=   1.0000000   1.0000000   1.0000000   6.0000000   1.0000000   1.0000000   1.0000000   6.0000000   1.0000000   1.0000000

  Atom        61          62          63          64          65          66          67          68          69
 IAtWgt=           1          12           1           1           1          12           1           1           1
 AtmWgt=   1.0078250  12.0000000   1.0078250   1.0078250   1.0078250  12.0000000   1.0078250   1.0078250   1.0078250
 NucSpn=           1           0           1           1           1           0           1           1           1
 AtZEff=   1.0000000   3.6000000   1.0000000   1.0000000   1.0000000   3.6000000   1.0000000   1.0000000   1.0000000
 NQMom=    0.0000000   0.0000000   0.0000000   0.0000000   0.0000000   0.0000000   0.0000000   0.0000000   0.0000000
 NMagM=    2.7928460   0.0000000   2.7928460   2.7928460   2.7928460   0.0000000   2.7928460   2.7928460   2.7928460
 AtZNuc=   1.0000000   6.0000000   1.0000000   1.0000000   1.0000000   6.0000000   1.0000000   1.0000000   1.0000000
 Leave Link  101 at Fri Dec 21 18:10:18 2018, MaxMem=  1342177280 cpu:               5.3 elap:               0.4
 (Enter /gpfs/apps/hpc/Apps/Restricted/Gaussian/Rev_A.03/g16/l103.exe)

 GradGradGradGradGradGradGradGradGradGradGradGradGradGradGradGradGradGrad
 Berny optimization.
 Initialization pass.
                           ----------------------------
                           !    Initial Parameters    !
                           ! (Angstroms and Degrees)  !
 --------------------------                            --------------------------
 ! Name  Definition              Value          Derivative Info.                !
 --------------------------------------------------------------------------------
 ! R1    R(1,2)                  1.4173         estimate D2E/DX2                !
 ! R2    R(1,6)                  1.4155         estimate D2E/DX2                !
 ! R3    R(1,23)                 1.368          estimate D2E/DX2                !
 ! R4    R(2,3)                  1.3933         estimate D2E/DX2                !
 ! R5    R(2,11)                 1.3739         estimate D2E/DX2                !
 ! R6    R(3,4)                  1.3981         estimate D2E/DX2                !
 ! R7    R(3,8)                  1.0826         estimate D2E/DX2                !
 ! R8    R(4,5)                  1.399          estimate D2E/DX2                !
 ! R9    R(4,9)                  1.0826         estimate D2E/DX2                !
 ! R10   R(5,6)                  1.4061         estimate D2E/DX2                !
 ! R11   R(5,10)                 1.0838         estimate D2E/DX2                !
 ! R12   R(6,24)                 1.429          estimate D2E/DX2                !
 ! R13   R(7,11)                 1.3655         estimate D2E/DX2                !
 ! R14   R(7,13)                 1.4516         estimate D2E/DX2                !
 ! R15   R(7,23)                 1.3441         estimate D2E/DX2                !
 ! R16   R(11,44)                1.0163         estimate D2E/DX2                !
 ! R17   R(12,13)                1.47           estimate D2E/DX2                !
 ! R18   R(12,17)                1.4679         estimate D2E/DX2                !
 ! R19   R(12,22)                1.2592         estimate D2E/DX2                !
 ! R20   R(13,14)                1.3801         estimate D2E/DX2                !
 ! R21   R(14,15)                1.4084         estimate D2E/DX2                !
 ! R22   R(14,18)                1.0824         estimate D2E/DX2                !
 ! R23   R(15,16)                1.4133         estimate D2E/DX2                !
 ! R24   R(15,20)                1.5239         estimate D2E/DX2                !
 ! R25   R(16,17)                1.3809         estimate D2E/DX2                !
 ! R26   R(16,19)                1.0787         estimate D2E/DX2                !
 ! R27   R(17,21)                1.5271         estimate D2E/DX2                !
 ! R28   R(20,58)                1.5342         estimate D2E/DX2                !
 ! R29   R(20,62)                1.5437         estimate D2E/DX2                !
 ! R30   R(20,66)                1.5452         estimate D2E/DX2                !
 ! R31   R(21,46)                1.5454         estimate D2E/DX2                !
 ! R32   R(21,50)                1.5453         estimate D2E/DX2                !
 ! R33   R(21,54)                1.5368         estimate D2E/DX2                !
 ! R34   R(24,25)                1.0843         estimate D2E/DX2                !
 ! R35   R(24,26)                1.299          estimate D2E/DX2                !
 ! R36   R(26,27)                1.4768         estimate D2E/DX2                !
 ! R37   R(26,45)                1.0274         estimate D2E/DX2                !
 ! R38   R(27,28)                1.5372         estimate D2E/DX2                !
 ! R39   R(27,29)                1.5313         estimate D2E/DX2                !
 ! R40   R(27,30)                1.0925         estimate D2E/DX2                !
 ! R41   R(28,31)                1.5326         estimate D2E/DX2                !
 ! R42   R(28,32)                1.0959         estimate D2E/DX2                !
 ! R43   R(28,33)                1.0933         estimate D2E/DX2                !
 ! R44   R(29,34)                1.5331         estimate D2E/DX2                !
 ! R45   R(29,35)                1.0951         estimate D2E/DX2                !
 ! R46   R(29,36)                1.0931         estimate D2E/DX2                !
 ! R47   R(31,37)                1.5321         estimate D2E/DX2                !
 ! R48   R(31,38)                1.0934         estimate D2E/DX2                !
 ! R49   R(31,39)                1.0964         estimate D2E/DX2                !
 ! R50   R(34,37)                1.5326         estimate D2E/DX2                !
 ! R51   R(34,40)                1.0935         estimate D2E/DX2                !
 ! R52   R(34,41)                1.0965         estimate D2E/DX2                !
 ! R53   R(37,42)                1.0936         estimate D2E/DX2                !
 ! R54   R(37,43)                1.0969         estimate D2E/DX2                !
 ! R55   R(46,47)                1.0935         estimate D2E/DX2                !
 ! R56   R(46,48)                1.0889         estimate D2E/DX2                !
 ! R57   R(46,49)                1.0932         estimate D2E/DX2                !
 ! R58   R(50,51)                1.0882         estimate D2E/DX2                !
 ! R59   R(50,52)                1.0935         estimate D2E/DX2                !
 ! R60   R(50,53)                1.0934         estimate D2E/DX2                !
 ! R61   R(54,55)                1.0931         estimate D2E/DX2                !
 ! R62   R(54,56)                1.0931         estimate D2E/DX2                !
 ! R63   R(54,57)                1.092          estimate D2E/DX2                !
 ! R64   R(58,59)                1.0932         estimate D2E/DX2                !
 ! R65   R(58,60)                1.0928         estimate D2E/DX2                !
 ! R66   R(58,61)                1.0921         estimate D2E/DX2                !
 ! R67   R(62,63)                1.0929         estimate D2E/DX2                !
 ! R68   R(62,64)                1.0923         estimate D2E/DX2                !
 ! R69   R(62,65)                1.0924         estimate D2E/DX2                !
 ! R70   R(66,67)                1.0927         estimate D2E/DX2                !
 ! R71   R(66,68)                1.0923         estimate D2E/DX2                !
 ! R72   R(66,69)                1.0931         estimate D2E/DX2                !
 ! A1    A(2,1,6)              119.8313         estimate D2E/DX2                !
 ! A2    A(2,1,23)             110.674          estimate D2E/DX2                !
 ! A3    A(6,1,23)             129.4941         estimate D2E/DX2                !
 ! A4    A(1,2,3)              122.2494         estimate D2E/DX2                !
 ! A5    A(1,2,11)             104.3898         estimate D2E/DX2                !
 ! A6    A(3,2,11)             133.3596         estimate D2E/DX2                !
 ! A7    A(2,3,4)              117.3128         estimate D2E/DX2                !
 ! A8    A(2,3,8)              121.4261         estimate D2E/DX2                !
 ! A9    A(4,3,8)              121.261          estimate D2E/DX2                !
 ! A10   A(3,4,5)              121.6039         estimate D2E/DX2                !
 ! A11   A(3,4,9)              119.1606         estimate D2E/DX2                !
 ! A12   A(5,4,9)              119.2355         estimate D2E/DX2                !
 ! A13   A(4,5,6)              121.4492         estimate D2E/DX2                !
 ! A14   A(4,5,10)             119.6995         estimate D2E/DX2                !
 ! A15   A(6,5,10)             118.851          estimate D2E/DX2                !
 ! A16   A(1,6,5)              117.5513         estimate D2E/DX2                !
 ! A17   A(1,6,24)             122.146          estimate D2E/DX2                !
 ! A18   A(5,6,24)             120.2991         estimate D2E/DX2                !
 ! A19   A(11,7,13)            123.4425         estimate D2E/DX2                !
 ! A20   A(11,7,23)            111.6915         estimate D2E/DX2                !
 ! A21   A(13,7,23)            124.8654         estimate D2E/DX2                !
 ! A22   A(2,11,7)             108.1576         estimate D2E/DX2                !
 ! A23   A(2,11,44)            130.7583         estimate D2E/DX2                !
 ! A24   A(7,11,44)            121.0831         estimate D2E/DX2                !
 ! A25   A(13,12,17)           117.7051         estimate D2E/DX2                !
 ! A26   A(13,12,22)           120.5318         estimate D2E/DX2                !
 ! A27   A(17,12,22)           121.7629         estimate D2E/DX2                !
 ! A28   A(7,13,12)            120.4611         estimate D2E/DX2                !
 ! A29   A(7,13,14)            119.2027         estimate D2E/DX2                !
 ! A30   A(12,13,14)           120.3338         estimate D2E/DX2                !
 ! A31   A(13,14,15)           121.5559         estimate D2E/DX2                !
 ! A32   A(13,14,18)           118.5934         estimate D2E/DX2                !
 ! A33   A(15,14,18)           119.8506         estimate D2E/DX2                !
 ! A34   A(14,15,16)           118.5454         estimate D2E/DX2                !
 ! A35   A(14,15,20)           118.9332         estimate D2E/DX2                !
 ! A36   A(16,15,20)           122.513          estimate D2E/DX2                !
 ! A37   A(15,16,17)           123.5815         estimate D2E/DX2                !
 ! A38   A(15,16,19)           117.888          estimate D2E/DX2                !
 ! A39   A(17,16,19)           118.5303         estimate D2E/DX2                !
 ! A40   A(12,17,16)           118.2768         estimate D2E/DX2                !
 ! A41   A(12,17,21)           119.8211         estimate D2E/DX2                !
 ! A42   A(16,17,21)           121.9016         estimate D2E/DX2                !
 ! A43   A(15,20,58)           112.6802         estimate D2E/DX2                !
 ! A44   A(15,20,62)           109.1416         estimate D2E/DX2                !
 ! A45   A(15,20,66)           108.1663         estimate D2E/DX2                !
 ! A46   A(58,20,62)           108.8207         estimate D2E/DX2                !
 ! A47   A(58,20,66)           108.8375         estimate D2E/DX2                !
 ! A48   A(62,20,66)           109.1407         estimate D2E/DX2                !
 ! A49   A(17,21,46)           109.5373         estimate D2E/DX2                !
 ! A50   A(17,21,50)           109.8288         estimate D2E/DX2                !
 ! A51   A(17,21,54)           111.7099         estimate D2E/DX2                !
 ! A52   A(46,21,50)           109.7992         estimate D2E/DX2                !
 ! A53   A(46,21,54)           107.9941         estimate D2E/DX2                !
 ! A54   A(50,21,54)           107.9306         estimate D2E/DX2                !
 ! A55   A(1,23,7)             105.0871         estimate D2E/DX2                !
 ! A56   A(6,24,25)            118.9247         estimate D2E/DX2                !
 ! A57   A(6,24,26)            123.3631         estimate D2E/DX2                !
 ! A58   A(25,24,26)           117.711          estimate D2E/DX2                !
 ! A59   A(24,26,27)           125.372          estimate D2E/DX2                !
 ! A60   A(24,26,45)           116.1447         estimate D2E/DX2                !
 ! A61   A(27,26,45)           118.3725         estimate D2E/DX2                !
 ! A62   A(26,27,28)           109.9917         estimate D2E/DX2                !
 ! A63   A(26,27,29)           112.1626         estimate D2E/DX2                !
 ! A64   A(26,27,30)           104.8492         estimate D2E/DX2                !
 ! A65   A(28,27,29)           111.6058         estimate D2E/DX2                !
 ! A66   A(28,27,30)           108.9872         estimate D2E/DX2                !
 ! A67   A(29,27,30)           108.9795         estimate D2E/DX2                !
 ! A68   A(27,28,31)           110.5643         estimate D2E/DX2                !
 ! A69   A(27,28,32)           108.1932         estimate D2E/DX2                !
 ! A70   A(27,28,33)           109.7332         estimate D2E/DX2                !
 ! A71   A(31,28,32)           110.0395         estimate D2E/DX2                !
 ! A72   A(31,28,33)           110.7975         estimate D2E/DX2                !
 ! A73   A(32,28,33)           107.4251         estimate D2E/DX2                !
 ! A74   A(27,29,34)           110.3105         estimate D2E/DX2                !
 ! A75   A(27,29,35)           109.64           estimate D2E/DX2                !
 ! A76   A(27,29,36)           109.6215         estimate D2E/DX2                !
 ! A77   A(34,29,35)           108.5233         estimate D2E/DX2                !
 ! A78   A(34,29,36)           111.1485         estimate D2E/DX2                !
 ! A79   A(35,29,36)           107.539          estimate D2E/DX2                !
 ! A80   A(28,31,37)           111.5865         estimate D2E/DX2                !
 ! A81   A(28,31,38)           109.3656         estimate D2E/DX2                !
 ! A82   A(28,31,39)           109.0472         estimate D2E/DX2                !
 ! A83   A(37,31,38)           110.708          estimate D2E/DX2                !
 ! A84   A(37,31,39)           109.1969         estimate D2E/DX2                !
 ! A85   A(38,31,39)           106.8057         estimate D2E/DX2                !
 ! A86   A(29,34,37)           111.2189         estimate D2E/DX2                !
 ! A87   A(29,34,40)           109.1776         estimate D2E/DX2                !
 ! A88   A(29,34,41)           109.4201         estimate D2E/DX2                !
 ! A89   A(37,34,40)           110.6726         estimate D2E/DX2                !
 ! A90   A(37,34,41)           109.392          estimate D2E/DX2                !
 ! A91   A(40,34,41)           106.854          estimate D2E/DX2                !
 ! A92   A(31,37,34)           110.9581         estimate D2E/DX2                !
 ! A93   A(31,37,42)           110.1687         estimate D2E/DX2                !
 ! A94   A(31,37,43)           109.3629         estimate D2E/DX2                !
 ! A95   A(34,37,42)           110.18           estimate D2E/DX2                !
 ! A96   A(34,37,43)           109.1912         estimate D2E/DX2                !
 ! A97   A(42,37,43)           106.8839         estimate D2E/DX2                !
 ! A98   A(21,46,47)           109.2788         estimate D2E/DX2                !
 ! A99   A(21,46,48)           111.3732         estimate D2E/DX2                !
 ! A100  A(21,46,49)           110.6649         estimate D2E/DX2                !
 ! A101  A(47,46,48)           108.6862         estimate D2E/DX2                !
 ! A102  A(47,46,49)           108.0664         estimate D2E/DX2                !
 ! A103  A(48,46,49)           108.6903         estimate D2E/DX2                !
 ! A104  A(21,50,51)           111.0951         estimate D2E/DX2                !
 ! A105  A(21,50,52)           109.3237         estimate D2E/DX2                !
 ! A106  A(21,50,53)           110.5628         estimate D2E/DX2                !
 ! A107  A(51,50,52)           108.8457         estimate D2E/DX2                !
 ! A108  A(51,50,53)           108.7232         estimate D2E/DX2                !
 ! A109  A(52,50,53)           108.2258         estimate D2E/DX2                !
 ! A110  A(21,54,55)           111.9032         estimate D2E/DX2                !
 ! A111  A(21,54,56)           111.6385         estimate D2E/DX2                !
 ! A112  A(21,54,57)           108.8565         estimate D2E/DX2                !
 ! A113  A(55,54,56)           108.4276         estimate D2E/DX2                !
 ! A114  A(55,54,57)           107.9065         estimate D2E/DX2                !
 ! A115  A(56,54,57)           107.9651         estimate D2E/DX2                !
 ! A116  A(20,58,59)           111.7214         estimate D2E/DX2                !
 ! A117  A(20,58,60)           111.5663         estimate D2E/DX2                !
 ! A118  A(20,58,61)           109.2186         estimate D2E/DX2                !
 ! A119  A(59,58,60)           108.4886         estimate D2E/DX2                !
 ! A120  A(59,58,61)           107.866          estimate D2E/DX2                !
 ! A121  A(60,58,61)           107.8361         estimate D2E/DX2                !
 ! A122  A(20,62,63)           109.3501         estimate D2E/DX2                !
 ! A123  A(20,62,64)           111.636          estimate D2E/DX2                !
 ! A124  A(20,62,65)           110.9785         estimate D2E/DX2                !
 ! A125  A(63,62,64)           108.0774         estimate D2E/DX2                !
 ! A126  A(63,62,65)           108.2964         estimate D2E/DX2                !
 ! A127  A(64,62,65)           108.3999         estimate D2E/DX2                !
 ! A128  A(20,66,67)           110.7956         estimate D2E/DX2                !
 ! A129  A(20,66,68)           111.3154         estimate D2E/DX2                !
 ! A130  A(20,66,69)           109.6874         estimate D2E/DX2                !
 ! A131  A(67,66,68)           108.306          estimate D2E/DX2                !
 ! A132  A(67,66,69)           108.3881         estimate D2E/DX2                !
 ! A133  A(68,66,69)           108.2611         estimate D2E/DX2                !
 ! D1    D(6,1,2,3)              0.1051         estimate D2E/DX2                !
 ! D2    D(6,1,2,11)           179.7526         estimate D2E/DX2                !
 ! D3    D(23,1,2,3)          -179.6489         estimate D2E/DX2                !
 ! D4    D(23,1,2,11)           -0.0014         estimate D2E/DX2                !
 ! D5    D(2,1,6,5)              0.3054         estimate D2E/DX2                !
 ! D6    D(2,1,6,24)          -179.0036         estimate D2E/DX2                !
 ! D7    D(23,1,6,5)          -179.9929         estimate D2E/DX2                !
 ! D8    D(23,1,6,24)            0.6982         estimate D2E/DX2                !
 ! D9    D(2,1,23,7)            -0.0191         estimate D2E/DX2                !
 ! D10   D(6,1,23,7)          -179.7426         estimate D2E/DX2                !
 ! D11   D(1,2,3,4)             -0.3108         estimate D2E/DX2                !
 ! D12   D(1,2,3,8)            179.5495         estimate D2E/DX2                !
 ! D13   D(11,2,3,4)          -179.8411         estimate D2E/DX2                !
 ! D14   D(11,2,3,8)             0.0192         estimate D2E/DX2                !
 ! D15   D(1,2,11,7)             0.0214         estimate D2E/DX2                !
 ! D16   D(1,2,11,44)         -179.6018         estimate D2E/DX2                !
 ! D17   D(3,2,11,7)           179.6113         estimate D2E/DX2                !
 ! D18   D(3,2,11,44)           -0.0119         estimate D2E/DX2                !
 ! D19   D(2,3,4,5)              0.1042         estimate D2E/DX2                !
 ! D20   D(2,3,4,9)           -179.8411         estimate D2E/DX2                !
 ! D21   D(8,3,4,5)           -179.7564         estimate D2E/DX2                !
 ! D22   D(8,3,4,9)              0.2984         estimate D2E/DX2                !
 ! D23   D(3,4,5,6)              0.3147         estimate D2E/DX2                !
 ! D24   D(3,4,5,10)          -179.8402         estimate D2E/DX2                !
 ! D25   D(9,4,5,6)           -179.7401         estimate D2E/DX2                !
 ! D26   D(9,4,5,10)             0.1051         estimate D2E/DX2                !
 ! D27   D(4,5,6,1)             -0.5123         estimate D2E/DX2                !
 ! D28   D(4,5,6,24)           178.81           estimate D2E/DX2                !
 ! D29   D(10,5,6,1)           179.6412         estimate D2E/DX2                !
 ! D30   D(10,5,6,24)           -1.0365         estimate D2E/DX2                !
 ! D31   D(1,6,24,25)         -179.8043         estimate D2E/DX2                !
 ! D32   D(1,6,24,26)            0.5993         estimate D2E/DX2                !
 ! D33   D(5,6,24,25)            0.9054         estimate D2E/DX2                !
 ! D34   D(5,6,24,26)         -178.6911         estimate D2E/DX2                !
 ! D35   D(13,7,11,2)         -179.7789         estimate D2E/DX2                !
 ! D36   D(13,7,11,44)          -0.1121         estimate D2E/DX2                !
 ! D37   D(23,7,11,2)           -0.0355         estimate D2E/DX2                !
 ! D38   D(23,7,11,44)         179.6312         estimate D2E/DX2                !
 ! D39   D(11,7,13,12)           1.6167         estimate D2E/DX2                !
 ! D40   D(11,7,13,14)        -178.9511         estimate D2E/DX2                !
 ! D41   D(23,7,13,12)        -178.0926         estimate D2E/DX2                !
 ! D42   D(23,7,13,14)           1.3396         estimate D2E/DX2                !
 ! D43   D(11,7,23,1)            0.0334         estimate D2E/DX2                !
 ! D44   D(13,7,23,1)          179.7724         estimate D2E/DX2                !
 ! D45   D(17,12,13,7)         179.3586         estimate D2E/DX2                !
 ! D46   D(17,12,13,14)         -0.0671         estimate D2E/DX2                !
 ! D47   D(22,12,13,7)          -0.5141         estimate D2E/DX2                !
 ! D48   D(22,12,13,14)       -179.9399         estimate D2E/DX2                !
 ! D49   D(13,12,17,16)          0.3563         estimate D2E/DX2                !
 ! D50   D(13,12,17,21)       -179.393          estimate D2E/DX2                !
 ! D51   D(22,12,17,16)       -179.7726         estimate D2E/DX2                !
 ! D52   D(22,12,17,21)          0.4781         estimate D2E/DX2                !
 ! D53   D(7,13,14,15)        -179.6477         estimate D2E/DX2                !
 ! D54   D(7,13,14,18)           0.2814         estimate D2E/DX2                !
 ! D55   D(12,13,14,15)         -0.2148         estimate D2E/DX2                !
 ! D56   D(12,13,14,18)        179.7144         estimate D2E/DX2                !
 ! D57   D(13,14,15,16)          0.2028         estimate D2E/DX2                !
 ! D58   D(13,14,15,20)        179.1736         estimate D2E/DX2                !
 ! D59   D(18,14,15,16)       -179.7255         estimate D2E/DX2                !
 ! D60   D(18,14,15,20)         -0.7547         estimate D2E/DX2                !
 ! D61   D(14,15,16,17)          0.1113         estimate D2E/DX2                !
 ! D62   D(14,15,16,19)        179.9612         estimate D2E/DX2                !
 ! D63   D(20,15,16,17)       -178.8206         estimate D2E/DX2                !
 ! D64   D(20,15,16,19)          1.0294         estimate D2E/DX2                !
 ! D65   D(14,15,20,58)        178.8762         estimate D2E/DX2                !
 ! D66   D(14,15,20,62)         57.868          estimate D2E/DX2                !
 ! D67   D(14,15,20,66)        -60.7639         estimate D2E/DX2                !
 ! D68   D(16,15,20,58)         -2.1959         estimate D2E/DX2                !
 ! D69   D(16,15,20,62)       -123.2041         estimate D2E/DX2                !
 ! D70   D(16,15,20,66)        118.1641         estimate D2E/DX2                !
 ! D71   D(15,16,17,12)         -0.3875         estimate D2E/DX2                !
 ! D72   D(15,16,17,21)        179.3563         estimate D2E/DX2                !
 ! D73   D(19,16,17,12)        179.7635         estimate D2E/DX2                !
 ! D74   D(19,16,17,21)         -0.4927         estimate D2E/DX2                !
 ! D75   D(12,17,21,46)         61.5361         estimate D2E/DX2                !
 ! D76   D(12,17,21,50)        -59.1296         estimate D2E/DX2                !
 ! D77   D(12,17,21,54)       -178.8535         estimate D2E/DX2                !
 ! D78   D(16,17,21,46)       -118.2039         estimate D2E/DX2                !
 ! D79   D(16,17,21,50)        121.1305         estimate D2E/DX2                !
 ! D80   D(16,17,21,54)          1.4066         estimate D2E/DX2                !
 ! D81   D(15,20,58,59)        -61.541          estimate D2E/DX2                !
 ! D82   D(15,20,58,60)         60.0942         estimate D2E/DX2                !
 ! D83   D(15,20,58,61)        179.2098         estimate D2E/DX2                !
 ! D84   D(62,20,58,59)         59.6502         estimate D2E/DX2                !
 ! D85   D(62,20,58,60)       -178.7146         estimate D2E/DX2                !
 ! D86   D(62,20,58,61)        -59.599          estimate D2E/DX2                !
 ! D87   D(66,20,58,59)        178.4854         estimate D2E/DX2                !
 ! D88   D(66,20,58,60)        -59.8794         estimate D2E/DX2                !
 ! D89   D(66,20,58,61)         59.2363         estimate D2E/DX2                !
 ! D90   D(15,20,62,63)       -178.7595         estimate D2E/DX2                !
 ! D91   D(15,20,62,64)        -59.2148         estimate D2E/DX2                !
 ! D92   D(15,20,62,65)         61.8341         estimate D2E/DX2                !
 ! D93   D(58,20,62,63)         57.907          estimate D2E/DX2                !
 ! D94   D(58,20,62,64)        177.4518         estimate D2E/DX2                !
 ! D95   D(58,20,62,65)        -61.4994         estimate D2E/DX2                !
 ! D96   D(66,20,62,63)        -60.738          estimate D2E/DX2                !
 ! D97   D(66,20,62,64)         58.8068         estimate D2E/DX2                !
 ! D98   D(66,20,62,65)        179.8556         estimate D2E/DX2                !
 ! D99   D(15,20,66,67)        -62.022          estimate D2E/DX2                !
 ! D100  D(15,20,66,68)         58.5644         estimate D2E/DX2                !
 ! D101  D(15,20,66,69)        178.3563         estimate D2E/DX2                !
 ! D102  D(58,20,66,67)         60.7111         estimate D2E/DX2                !
 ! D103  D(58,20,66,68)       -178.7025         estimate D2E/DX2                !
 ! D104  D(58,20,66,69)        -58.9106         estimate D2E/DX2                !
 ! D105  D(62,20,66,67)        179.3456         estimate D2E/DX2                !
 ! D106  D(62,20,66,68)        -60.068          estimate D2E/DX2                !
 ! D107  D(62,20,66,69)         59.724          estimate D2E/DX2                !
 ! D108  D(17,21,46,47)       -179.982          estimate D2E/DX2                !
 ! D109  D(17,21,46,48)        -59.8911         estimate D2E/DX2                !
 ! D110  D(17,21,46,49)         61.1325         estimate D2E/DX2                !
 ! D111  D(50,21,46,47)        -59.2984         estimate D2E/DX2                !
 ! D112  D(50,21,46,48)         60.7925         estimate D2E/DX2                !
 ! D113  D(50,21,46,49)       -178.1839         estimate D2E/DX2                !
 ! D114  D(54,21,46,47)         58.151          estimate D2E/DX2                !
 ! D115  D(54,21,46,48)        178.242          estimate D2E/DX2                !
 ! D116  D(54,21,46,49)        -60.7345         estimate D2E/DX2                !
 ! D117  D(17,21,50,51)         61.9035         estimate D2E/DX2                !
 ! D118  D(17,21,50,52)       -177.9532         estimate D2E/DX2                !
 ! D119  D(17,21,50,53)        -58.9058         estimate D2E/DX2                !
 ! D120  D(46,21,50,51)        -58.6038         estimate D2E/DX2                !
 ! D121  D(46,21,50,52)         61.5396         estimate D2E/DX2                !
 ! D122  D(46,21,50,53)       -179.413          estimate D2E/DX2                !
 ! D123  D(54,21,50,51)       -176.0929         estimate D2E/DX2                !
 ! D124  D(54,21,50,52)        -55.9495         estimate D2E/DX2                !
 ! D125  D(54,21,50,53)         63.0979         estimate D2E/DX2                !
 ! D126  D(17,21,54,55)        -60.8883         estimate D2E/DX2                !
 ! D127  D(17,21,54,56)         60.8492         estimate D2E/DX2                !
 ! D128  D(17,21,54,57)        179.9355         estimate D2E/DX2                !
 ! D129  D(46,21,54,55)         59.628          estimate D2E/DX2                !
 ! D130  D(46,21,54,56)       -178.6344         estimate D2E/DX2                !
 ! D131  D(46,21,54,57)        -59.5482         estimate D2E/DX2                !
 ! D132  D(50,21,54,55)        178.2759         estimate D2E/DX2                !
 ! D133  D(50,21,54,56)        -59.9865         estimate D2E/DX2                !
 ! D134  D(50,21,54,57)         59.0997         estimate D2E/DX2                !
 ! D135  D(6,24,26,27)         177.0609         estimate D2E/DX2                !
 ! D136  D(6,24,26,45)           0.9663         estimate D2E/DX2                !
 ! D137  D(25,24,26,27)         -2.5401         estimate D2E/DX2                !
 ! D138  D(25,24,26,45)       -178.6347         estimate D2E/DX2                !
 ! D139  D(24,26,27,28)        -82.4718         estimate D2E/DX2                !
 ! D140  D(24,26,27,29)         42.3676         estimate D2E/DX2                !
 ! D141  D(24,26,27,30)        160.4866         estimate D2E/DX2                !
 ! D142  D(45,26,27,28)         93.5436         estimate D2E/DX2                !
 ! D143  D(45,26,27,29)       -141.617          estimate D2E/DX2                !
 ! D144  D(45,26,27,30)        -23.498          estimate D2E/DX2                !
 ! D145  D(26,27,28,31)       -179.0192         estimate D2E/DX2                !
 ! D146  D(26,27,28,32)         60.4137         estimate D2E/DX2                !
 ! D147  D(26,27,28,33)        -56.508          estimate D2E/DX2                !
 ! D148  D(29,27,28,31)         55.822          estimate D2E/DX2                !
 ! D149  D(29,27,28,32)        -64.7451         estimate D2E/DX2                !
 ! D150  D(29,27,28,33)        178.3333         estimate D2E/DX2                !
 ! D151  D(30,27,28,31)        -64.5894         estimate D2E/DX2                !
 ! D152  D(30,27,28,32)        174.8435         estimate D2E/DX2                !
 ! D153  D(30,27,28,33)         57.9219         estimate D2E/DX2                !
 ! D154  D(26,27,29,34)        179.5069         estimate D2E/DX2                !
 ! D155  D(26,27,29,35)        -61.0367         estimate D2E/DX2                !
 ! D156  D(26,27,29,36)         56.798          estimate D2E/DX2                !
 ! D157  D(28,27,29,34)        -56.5495         estimate D2E/DX2                !
 ! D158  D(28,27,29,35)         62.9069         estimate D2E/DX2                !
 ! D159  D(28,27,29,36)       -179.2584         estimate D2E/DX2                !
 ! D160  D(30,27,29,34)         63.8665         estimate D2E/DX2                !
 ! D161  D(30,27,29,35)       -176.6771         estimate D2E/DX2                !
 ! D162  D(30,27,29,36)        -58.8425         estimate D2E/DX2                !
 ! D163  D(27,28,31,37)        -55.0522         estimate D2E/DX2                !
 ! D164  D(27,28,31,38)       -177.8822         estimate D2E/DX2                !
 ! D165  D(27,28,31,39)         65.6582         estimate D2E/DX2                !
 ! D166  D(32,28,31,37)         64.407          estimate D2E/DX2                !
 ! D167  D(32,28,31,38)        -58.4229         estimate D2E/DX2                !
 ! D168  D(32,28,31,39)       -174.8825         estimate D2E/DX2                !
 ! D169  D(33,28,31,37)       -176.9394         estimate D2E/DX2                !
 ! D170  D(33,28,31,38)         60.2306         estimate D2E/DX2                !
 ! D171  D(33,28,31,39)        -56.229          estimate D2E/DX2                !
 ! D172  D(27,29,34,37)         56.5348         estimate D2E/DX2                !
 ! D173  D(27,29,34,40)        178.9457         estimate D2E/DX2                !
 ! D174  D(27,29,34,41)        -64.4321         estimate D2E/DX2                !
 ! D175  D(35,29,34,37)        -63.5963         estimate D2E/DX2                !
 ! D176  D(35,29,34,40)         58.8146         estimate D2E/DX2                !
 ! D177  D(35,29,34,41)        175.4368         estimate D2E/DX2                !
 ! D178  D(36,29,34,37)        178.3447         estimate D2E/DX2                !
 ! D179  D(36,29,34,40)        -59.2443         estimate D2E/DX2                !
 ! D180  D(36,29,34,41)         57.3778         estimate D2E/DX2                !
 ! D181  D(28,31,37,34)         55.4781         estimate D2E/DX2                !
 ! D182  D(28,31,37,42)        177.7698         estimate D2E/DX2                !
 ! D183  D(28,31,37,43)        -65.034          estimate D2E/DX2                !
 ! D184  D(38,31,37,34)        177.538          estimate D2E/DX2                !
 ! D185  D(38,31,37,42)        -60.1703         estimate D2E/DX2                !
 ! D186  D(38,31,37,43)         57.0259         estimate D2E/DX2                !
 ! D187  D(39,31,37,34)        -65.1448         estimate D2E/DX2                !
 ! D188  D(39,31,37,42)         57.147          estimate D2E/DX2                !
 ! D189  D(39,31,37,43)        174.3431         estimate D2E/DX2                !
 ! D190  D(29,34,37,31)        -56.1508         estimate D2E/DX2                !
 ! D191  D(29,34,37,42)       -178.4359         estimate D2E/DX2                !
 ! D192  D(29,34,37,43)         64.4631         estimate D2E/DX2                !
 ! D193  D(40,34,37,31)       -177.6936         estimate D2E/DX2                !
 ! D194  D(40,34,37,42)         60.0213         estimate D2E/DX2                !
 ! D195  D(40,34,37,43)        -57.0798         estimate D2E/DX2                !
 ! D196  D(41,34,37,31)         64.8327         estimate D2E/DX2                !
 ! D197  D(41,34,37,42)        -57.4525         estimate D2E/DX2                !
 ! D198  D(41,34,37,43)       -174.5535         estimate D2E/DX2                !
 --------------------------------------------------------------------------------
 Trust Radius=3.00D-01 FncErr=1.00D-07 GrdErr=1.00D-07 EigMax=2.50D+02 EigMin=1.00D-04
 Number of steps in this run=    413 maximum allowed number of steps=    414.
 GradGradGradGradGradGradGradGradGradGradGradGradGradGradGradGradGradGrad

 Leave Link  103 at Fri Dec 21 18:10:18 2018, MaxMem=  1342177280 cpu:               0.6 elap:               0.1
 (Enter /gpfs/apps/hpc/Apps/Restricted/Gaussian/Rev_A.03/g16/l202.exe)
 Symmetry turned off by external request.
 Stoichiometry    C28H37N3O(1+,2)
 Framework group  C1[X(C28H37N3O)]
 Deg. of freedom   201
 Full point group                 C1      NOp   1
                          Input orientation:                          
 ---------------------------------------------------------------------
 Center     Atomic      Atomic             Coordinates (Angstroms)
 Number     Number       Type             X           Y           Z
 ---------------------------------------------------------------------
      1          6           0       -0.528073    2.742572    0.404197
      2          6           0       -1.921436    2.980419    0.301064
      3          6           0       -2.451704    4.265809    0.212852
      4          6           0       -1.550554    5.334546    0.236214
      5          6           0       -0.170901    5.128033    0.341490
      6          6           0        0.373135    3.833989    0.422135
      7          6           0       -1.476384    0.809681    0.407582
      8          1           0       -3.518023    4.431858    0.127295
      9          1           0       -1.930374    6.346308    0.172118
     10          1           0        0.499623    5.979267    0.359395
     11          7           0       -2.483178    1.726588    0.306580
     12          6           0       -3.060964   -1.168598    0.322868
     13          6           0       -1.700320   -0.624250    0.437828
     14          6           0       -0.618761   -1.472146    0.564038
     15          6           0       -0.778274   -2.871255    0.591400
     16          6           0       -2.082512   -3.404573    0.481720
     17          6           0       -3.216356   -2.628047    0.346212
     18          1           0        0.371068   -1.041120    0.641954
     19          1           0       -2.192376   -4.477493    0.503258
     20          6           0        0.459199   -3.752098    0.713784
     21          6           0       -4.606812   -3.245875    0.216236
     22          8           0       -4.050358   -0.398428    0.206418
     23          7           0       -0.270650    1.400503    0.468577
     24          6           0        1.787972    3.650514    0.503480
     25          1           0        2.430179    4.524088    0.516824
     26          7           0        2.355102    2.483039    0.555389
     27          6           0        3.811698    2.240422    0.578233
     28          6           0        4.374110    2.283257   -0.851756
     29          6           0        4.545498    3.216531    1.502221
     30          1           0        3.920675    1.227482    0.972873
     31          6           0        5.881885    2.008778   -0.845664
     32          1           0        4.175034    3.277269   -1.268103
     33          1           0        3.849587    1.555510   -1.476661
     34          6           0        6.049534    2.919561    1.503417
     35          1           0        4.393648    4.242088    1.149431
     36          1           0        4.129611    3.150194    2.510928
     37          6           0        6.626406    2.971977    0.084535
     38          1           0        6.267702    2.081106   -1.866169
     39          1           0        6.056732    0.978853   -0.512923
     40          1           0        6.556979    3.637847    2.153217
     41          1           0        6.224463    1.925172    1.931036
     42          1           0        7.692933    2.730728    0.101749
     43          1           0        6.537202    3.994116   -0.303449
     44          1           0       -3.454655    1.434506    0.245286
     45          1           0        1.725533    1.671887    0.519365
     46          6           0       -5.220585   -2.855122   -1.147165
     47          1           0       -6.215850   -3.299278   -1.235630
     48          1           0       -5.310687   -1.774484   -1.246725
     49          1           0       -4.606579   -3.232660   -1.969068
     50          6           0       -5.513324   -2.742357    1.361939
     51          1           0       -5.640604   -1.662598    1.314981
     52          1           0       -6.494929   -3.217532    1.282137
     53          1           0       -5.085021   -3.003350    2.333502
     54          6           0       -4.556574   -4.779951    0.292061
     55          1           0       -3.953177   -5.208439   -0.512409
     56          1           0       -4.152113   -5.123254    1.247789
     57          1           0       -5.571438   -5.171520    0.195653
     58          6           0        0.118948   -5.247457    0.757546
     59          1           0       -0.501333   -5.496081    1.622661
     60          1           0       -0.404050   -5.567051   -0.147173
     61          1           0        1.043267   -5.824453    0.831086
     62          6           0        1.222104   -3.377016    2.002363
     63          1           0        2.122267   -3.991682    2.082176
     64          1           0        1.527087   -2.328136    1.998990
     65          1           0        0.606277   -3.554211    2.887099
     66          6           0        1.365468   -3.482177   -0.508343
     67          1           0        0.854895   -3.749925   -1.436629
     68          1           0        1.651813   -2.429646   -0.565562
     69          1           0        2.276450   -4.081239   -0.430712
 ---------------------------------------------------------------------
 Rotational constants (GHZ):           0.1824938           0.0734777           0.0548026
 Leave Link  202 at Fri Dec 21 18:10:18 2018, MaxMem=  1342177280 cpu:               0.1 elap:               0.0
 (Enter /gpfs/apps/hpc/Apps/Restricted/Gaussian/Rev_A.03/g16/l716.exe)
 Electric field and nuclear coordinate derivatives read from checkpoint file.
 Dipole        = 2.38780321D+00 3.16401568D+00 8.76285786D-01
 Polarizability= 5.93162284D+02 2.17685498D+01 7.02631885D+02
                 1.88286448D+01-1.08423102D+01 2.64349650D+02
 Full mass-weighted force constant matrix:
 Low frequencies ---  -14.3603   -0.0027   -0.0006    0.0027    5.7185    9.9397
 Low frequencies ---   20.0049   32.5926   47.5233
 Diagonal vibrational polarizability:
       62.9508231      51.7761399     114.9158087
 Harmonic frequencies (cm**-1), IR intensities (KM/Mole), Raman scattering
 activities (A**4/AMU), depolarization ratios for plane and unpolarized
 incident light, reduced masses (AMU), force constants (mDyne/A),
 and normal coordinates:
                      1                      2                      3
                      A                      A                      A
 Frequencies --     11.8140                31.8644                47.4468
 Red. masses --      4.0860                 4.4387                 4.2561
 Frc consts  --      0.0003                 0.0027                 0.0056
 IR Inten    --      0.2886                 0.2437                 1.8068
  Atom  AN      X      Y      Z        X      Y      Z        X      Y      Z
     1   6    -0.01   0.01   0.04     0.03  -0.04   0.01     0.00  -0.01   0.01
     2   6    -0.01   0.01   0.06     0.03  -0.04   0.02     0.00  -0.00   0.01
     3   6    -0.01   0.01   0.10     0.02  -0.05   0.05     0.01  -0.01  -0.07
     4   6    -0.01   0.01   0.12     0.01  -0.04   0.06     0.02  -0.01  -0.15
     5   6    -0.01   0.01   0.09     0.01  -0.03   0.04     0.02  -0.01  -0.15
     6   6    -0.01   0.01   0.05     0.02  -0.03   0.01     0.01  -0.01  -0.06
     7   6    -0.01   0.01   0.01     0.03  -0.04  -0.01    -0.01  -0.00   0.12
     8   1    -0.01   0.02   0.12     0.01  -0.06   0.06     0.01  -0.01  -0.07
     9   1    -0.01   0.01   0.15    -0.00  -0.04   0.08     0.02  -0.01  -0.22
    10   1    -0.01   0.01   0.11     0.00  -0.03   0.05     0.02  -0.02  -0.22
    11   7    -0.01   0.01   0.04     0.03  -0.04   0.01    -0.00  -0.00   0.09
    12   6     0.01   0.00  -0.03    -0.00  -0.01  -0.02    -0.01   0.00   0.12
    13   6     0.00   0.01   0.00     0.01  -0.04  -0.02    -0.01  -0.00   0.13
    14   6     0.00   0.02   0.03    -0.01  -0.07  -0.01    -0.01  -0.00   0.11
    15   6     0.01   0.01   0.04    -0.04  -0.06   0.00    -0.01  -0.01   0.04
    16   6     0.02   0.01  -0.00    -0.06  -0.03  -0.00    -0.01  -0.01  -0.00
    17   6     0.02   0.00  -0.04    -0.04  -0.01  -0.02    -0.01  -0.00   0.02
    18   1    -0.00   0.02   0.07     0.00  -0.09  -0.00    -0.01  -0.01   0.12
    19   1     0.02   0.01  -0.01    -0.08  -0.03   0.01    -0.00  -0.01  -0.07
    20   6     0.01   0.03   0.12    -0.07  -0.10   0.03    -0.01  -0.01   0.00
    21   6     0.02  -0.01  -0.10    -0.05   0.02  -0.02    -0.00   0.00  -0.06
    22   8     0.00  -0.00  -0.04     0.01   0.00  -0.03    -0.02   0.00   0.18
    23   7    -0.01   0.01   0.01     0.04  -0.04  -0.01    -0.00  -0.01   0.08
    24   6    -0.01   0.00   0.01     0.02   0.00  -0.00     0.01  -0.01  -0.06
    25   1    -0.00  -0.00   0.01    -0.00   0.02  -0.00     0.01  -0.01  -0.11
    26   7    -0.01  -0.00  -0.02     0.06   0.02  -0.02     0.01  -0.01  -0.00
    27   6    -0.02  -0.02  -0.06     0.07   0.08  -0.02     0.01   0.00  -0.00
    28   6    -0.05  -0.03  -0.07     0.07   0.08  -0.02     0.01  -0.00  -0.00
    29   6     0.02  -0.03  -0.08     0.04   0.13  -0.04     0.00   0.02  -0.01
    30   1    -0.02  -0.02  -0.06     0.12   0.09  -0.01     0.02   0.01   0.00
    31   6    -0.05  -0.05  -0.10     0.08   0.14  -0.02     0.02   0.02   0.00
    32   1    -0.04  -0.03  -0.07     0.03   0.07  -0.04     0.00  -0.01  -0.01
    33   1    -0.07  -0.02  -0.06     0.10   0.05  -0.01     0.02  -0.01   0.00
    34   6     0.01  -0.05  -0.10     0.05   0.19  -0.03     0.01   0.04  -0.01
    35   1     0.02  -0.02  -0.08    -0.00   0.12  -0.05    -0.01   0.01  -0.01
    36   1     0.03  -0.01  -0.07     0.04   0.13  -0.04     0.00   0.01  -0.01
    37   6    -0.02  -0.06  -0.12     0.05   0.19  -0.03     0.00   0.04  -0.01
    38   1    -0.07  -0.06  -0.11     0.08   0.14  -0.02     0.02   0.01  -0.00
    39   1    -0.06  -0.05  -0.10     0.13   0.16  -0.00     0.03   0.02   0.01
    40   1     0.03  -0.05  -0.12     0.02   0.22  -0.04    -0.00   0.05  -0.01
    41   1     0.00  -0.05  -0.11     0.09   0.20  -0.02     0.02   0.04  -0.00
    42   1    -0.02  -0.08  -0.14     0.06   0.24  -0.03     0.01   0.05  -0.01
    43   1    -0.01  -0.06  -0.12     0.00   0.18  -0.05    -0.01   0.03  -0.02
    44   1    -0.01   0.01   0.04     0.03  -0.05   0.01    -0.01   0.00   0.11
    45   1    -0.02   0.00  -0.02     0.10   0.00  -0.02     0.01  -0.01   0.05
    46   6     0.07   0.01  -0.12    -0.03   0.03  -0.03     0.02   0.12  -0.03
    47   1     0.07   0.02  -0.16    -0.04   0.05  -0.03     0.01   0.15  -0.07
    48   1     0.08   0.02  -0.11    -0.01   0.03  -0.03     0.03   0.13   0.06
    49   1     0.10   0.02  -0.10    -0.03   0.02  -0.02     0.02   0.18  -0.05
    50   6    -0.02  -0.03  -0.13    -0.05   0.05  -0.03    -0.02  -0.11  -0.02
    51   1    -0.02  -0.03  -0.12    -0.03   0.06  -0.04    -0.04  -0.11   0.06
    52   1    -0.01  -0.03  -0.17    -0.06   0.07  -0.03    -0.01  -0.12  -0.06
    53   1    -0.05  -0.04  -0.12    -0.06   0.05  -0.03    -0.02  -0.17  -0.04
    54   6     0.03  -0.01  -0.13    -0.09   0.02  -0.01     0.01  -0.00  -0.20
    55   1     0.07   0.01  -0.11    -0.09   0.00  -0.00     0.04   0.08  -0.22
    56   1    -0.02  -0.02  -0.11    -0.10   0.02  -0.00    -0.03  -0.10  -0.22
    57   1     0.03  -0.01  -0.18    -0.10   0.05  -0.01     0.01  -0.00  -0.28
    58   6     0.02   0.02   0.11    -0.11  -0.09   0.05    -0.00  -0.01  -0.12
    59   1    -0.01   0.02   0.08    -0.13  -0.06   0.05    -0.02  -0.08  -0.15
    60   1     0.07   0.01   0.09    -0.11  -0.09   0.05     0.02   0.05  -0.15
    61   1     0.03   0.03   0.16    -0.13  -0.11   0.07     0.00  -0.01  -0.14
    62   6    -0.07   0.05   0.16    -0.09  -0.10   0.05    -0.03  -0.10   0.04
    63   1    -0.10   0.03   0.25    -0.12  -0.15   0.09    -0.02  -0.09  -0.01
    64   1    -0.05   0.04   0.15    -0.03  -0.12   0.03    -0.06  -0.09   0.14
    65   1    -0.15   0.10   0.12    -0.13  -0.05   0.03    -0.03  -0.20   0.02
    66   6     0.08   0.02   0.17    -0.04  -0.14   0.05     0.01   0.09   0.03
    67   1     0.14   0.01   0.14    -0.02  -0.16   0.04     0.02   0.16   0.01
    68   1     0.07   0.03   0.17    -0.03  -0.15   0.02     0.02   0.09   0.12
    69   1     0.08   0.04   0.23    -0.05  -0.15   0.08     0.00   0.07  -0.00
                      4                      5                      6
                      A                      A                      A
 Frequencies --     50.8743                55.2566                62.5417
 Red. masses --      2.9650                 3.2720                 3.5140
 Frc consts  --      0.0045                 0.0059                 0.0081
 IR Inten    --      0.1441                 0.0293                 0.0094
  Atom  AN      X      Y      Z        X      Y      Z        X      Y      Z
     1   6    -0.00  -0.00   0.02    -0.00  -0.00  -0.05     0.01   0.00   0.03
     2   6    -0.00  -0.00   0.02    -0.01   0.00   0.01     0.01  -0.01  -0.05
     3   6     0.00  -0.00  -0.00    -0.00   0.01   0.06     0.01  -0.01  -0.09
     4   6     0.00  -0.00  -0.02     0.00   0.00   0.05    -0.00  -0.00  -0.06
     5   6     0.00  -0.00  -0.02     0.00  -0.00   0.00    -0.01   0.00   0.02
     6   6     0.00  -0.00   0.01     0.00  -0.01  -0.05    -0.00   0.01   0.07
     7   6    -0.00  -0.00   0.04    -0.01  -0.00  -0.04     0.01  -0.00  -0.02
     8   1     0.00  -0.00  -0.01    -0.01   0.01   0.11     0.01  -0.02  -0.15
     9   1     0.00  -0.00  -0.04     0.00   0.01   0.10    -0.00  -0.01  -0.10
    10   1     0.00  -0.00  -0.03     0.01  -0.01   0.01    -0.01   0.01   0.04
    11   7    -0.00  -0.00   0.03    -0.01   0.00   0.01     0.02  -0.01  -0.07
    12   6    -0.00   0.00   0.03    -0.01  -0.00   0.01     0.01   0.00  -0.02
    13   6    -0.00  -0.00   0.05    -0.01  -0.00  -0.04     0.02  -0.00  -0.03
    14   6    -0.01  -0.00   0.06    -0.00   0.00  -0.06     0.01  -0.01  -0.04
    15   6    -0.01  -0.00   0.07    -0.00   0.00  -0.03     0.01  -0.01  -0.04
    16   6    -0.01   0.00   0.06     0.00  -0.00  -0.04     0.01  -0.00  -0.05
    17   6    -0.00   0.00   0.03    -0.00  -0.00  -0.03     0.01   0.00  -0.04
    18   1    -0.01   0.00   0.05    -0.01   0.01  -0.08     0.01  -0.01  -0.04
    19   1    -0.01   0.00   0.07     0.00  -0.00  -0.04     0.00  -0.00  -0.06
    20   6    -0.00  -0.00   0.01     0.00   0.01   0.03     0.00  -0.01  -0.00
    21   6     0.00   0.00  -0.05    -0.00  -0.01  -0.01     0.00   0.01  -0.01
    22   8    -0.00   0.00   0.02    -0.02  -0.00   0.08     0.01   0.00   0.01
    23   7    -0.00  -0.00   0.04    -0.00  -0.01  -0.08     0.01   0.00   0.05
    24   6     0.00  -0.00   0.00     0.00  -0.01  -0.08    -0.01   0.02   0.13
    25   1     0.00  -0.00  -0.02     0.00  -0.02  -0.08    -0.01   0.02   0.15
    26   7     0.00  -0.00   0.01     0.00  -0.02  -0.09    -0.00   0.02   0.14
    27   6     0.00   0.00   0.00     0.00  -0.01  -0.06    -0.00   0.02   0.11
    28   6    -0.01   0.00  -0.00     0.06   0.05  -0.03    -0.08  -0.09   0.07
    29   6     0.01   0.00  -0.00    -0.04  -0.05   0.02     0.05   0.08  -0.01
    30   1     0.01  -0.00  -0.00    -0.01  -0.03  -0.09     0.01   0.05   0.18
    31   6    -0.01   0.00  -0.01     0.06   0.05   0.02    -0.08  -0.09   0.00
    32   1    -0.01   0.01   0.00     0.08   0.06   0.00    -0.11  -0.12   0.01
    33   1    -0.01   0.01  -0.00     0.09   0.07  -0.08    -0.12  -0.14   0.15
    34   6     0.01   0.00  -0.01    -0.04  -0.05   0.07     0.05   0.08  -0.07
    35   1     0.00   0.00  -0.00    -0.03  -0.04   0.05     0.03   0.06  -0.07
    36   1     0.01  -0.00  -0.00    -0.08  -0.09  -0.00     0.10   0.15   0.02
    37   6    -0.00   0.00  -0.02     0.02   0.01   0.09    -0.04  -0.01  -0.11
    38   1    -0.02   0.01  -0.02     0.10   0.09   0.04    -0.14  -0.16  -0.02
    39   1    -0.01   0.00  -0.01     0.05   0.03  -0.01    -0.06  -0.06   0.07
    40   1     0.01   0.00  -0.02    -0.06  -0.07   0.11     0.09   0.12  -0.15
    41   1     0.01   0.00  -0.01    -0.05  -0.06   0.04     0.07   0.11  -0.02
    42   1    -0.00   0.00  -0.03     0.02   0.00   0.13    -0.03   0.00  -0.16
    43   1    -0.01   0.00  -0.02     0.05   0.02   0.13    -0.07  -0.04  -0.18
    44   1    -0.00  -0.00   0.03    -0.01   0.01   0.05     0.02  -0.01  -0.09
    45   1     0.00  -0.00   0.03    -0.00  -0.01  -0.09     0.00   0.02   0.11
    46   6     0.09   0.00  -0.09    -0.10   0.10   0.06    -0.09   0.09   0.05
    47   1     0.09   0.02  -0.15    -0.10   0.10   0.10    -0.09   0.09   0.10
    48   1     0.11   0.00  -0.10    -0.11   0.10   0.14    -0.10   0.09   0.11
    49   1     0.14  -0.01  -0.05    -0.15   0.16  -0.01    -0.14   0.13  -0.01
    50   6    -0.07   0.01  -0.11     0.07  -0.10   0.09     0.08  -0.05   0.08
    51   1    -0.07   0.01  -0.12     0.05  -0.10   0.18     0.08  -0.05   0.14
    52   1    -0.07   0.01  -0.18     0.07  -0.11   0.14     0.08  -0.05   0.14
    53   1    -0.14   0.00  -0.08     0.15  -0.16   0.04     0.16  -0.09   0.04
    54   6    -0.01   0.00  -0.04     0.01  -0.01  -0.14     0.00   0.01  -0.11
    55   1     0.03  -0.00  -0.01    -0.01   0.07  -0.20    -0.03   0.06  -0.16
    56   1    -0.07   0.00  -0.02     0.04  -0.10  -0.19     0.04  -0.06  -0.15
    57   1    -0.00   0.01  -0.10     0.01  -0.01  -0.15    -0.00   0.02  -0.10
    58   6    -0.00   0.00   0.16     0.01   0.02   0.15    -0.01  -0.01   0.08
    59   1     0.06   0.08   0.22     0.01   0.09   0.17    -0.01   0.04   0.09
    60   1    -0.07  -0.08   0.22     0.02  -0.07   0.18    -0.00  -0.06   0.09
    61   1    -0.00   0.01   0.14     0.01   0.03   0.20    -0.01  -0.01   0.11
    62   6     0.17   0.07  -0.11     0.01   0.12  -0.01     0.01   0.04  -0.02
    63   1     0.20   0.11  -0.23    -0.01   0.10   0.06    -0.01   0.02   0.03
    64   1     0.14   0.08  -0.19     0.04   0.11  -0.11     0.04   0.03  -0.08
    65   1     0.31   0.08  -0.01    -0.00   0.22   0.01    -0.01   0.12  -0.01
    66   6    -0.15  -0.09  -0.12    -0.01  -0.08   0.00     0.00  -0.08  -0.01
    67   1    -0.26  -0.14  -0.04    -0.00  -0.16   0.03     0.00  -0.12  -0.00
    68   1    -0.15  -0.09  -0.21    -0.03  -0.08  -0.09     0.00  -0.08  -0.06
    69   1    -0.15  -0.09  -0.19     0.01  -0.05   0.05     0.00  -0.07   0.02
                      7                      8                      9
                      A                      A                      A
 Frequencies --     79.3846                90.8175               110.9083
 Red. masses --      3.9084                 3.7018                 5.2123
 Frc consts  --      0.0145                 0.0180                 0.0378
 IR Inten    --      2.2300                 0.7227                 1.5130
  Atom  AN      X      Y      Z        X      Y      Z        X      Y      Z
     1   6    -0.00  -0.03  -0.01     0.01  -0.02   0.05     0.01  -0.00  -0.08
     2   6     0.00   0.02   0.01     0.02   0.00  -0.04     0.01   0.00  -0.11
     3   6     0.05   0.04   0.05     0.05   0.01  -0.11     0.01   0.00  -0.06
     4   6     0.09   0.01   0.06     0.07  -0.01  -0.08    -0.00   0.01   0.03
     5   6     0.08  -0.04   0.03     0.06  -0.03   0.01    -0.01   0.01   0.09
     6   6     0.04  -0.06  -0.01     0.03  -0.04   0.08     0.00   0.01   0.02
     7   6    -0.07   0.00  -0.02    -0.03  -0.00   0.01     0.00  -0.00  -0.11
     8   1     0.05   0.08   0.08     0.06   0.03  -0.19     0.01  -0.00  -0.08
     9   1     0.12   0.02   0.09     0.09   0.00  -0.13    -0.01   0.01   0.08
    10   1     0.11  -0.07   0.04     0.07  -0.04   0.02    -0.01   0.01   0.18
    11   7    -0.04   0.04   0.00    -0.01   0.01  -0.07     0.01   0.00  -0.14
    12   6    -0.08  -0.01  -0.00    -0.04  -0.01  -0.03    -0.02  -0.00   0.14
    13   6    -0.08   0.01  -0.01    -0.05  -0.00   0.00    -0.00  -0.00  -0.06
    14   6    -0.07   0.03  -0.01    -0.05   0.01   0.03     0.01  -0.00  -0.15
    15   6    -0.04   0.03  -0.01    -0.03   0.01   0.02    -0.00  -0.00  -0.06
    16   6    -0.02   0.01   0.00    -0.02  -0.01  -0.00    -0.01  -0.00   0.06
    17   6    -0.04  -0.02   0.00    -0.03  -0.02  -0.02    -0.02  -0.00   0.12
    18   1    -0.08   0.06  -0.02    -0.05   0.02   0.05     0.02  -0.01  -0.28
    19   1     0.00   0.00   0.00    -0.01  -0.01   0.00    -0.01  -0.00   0.08
    20   6    -0.00   0.08  -0.01    -0.01   0.04   0.02    -0.01  -0.00  -0.04
    21   6    -0.02  -0.06  -0.00    -0.02  -0.04  -0.00    -0.00  -0.02   0.04
    22   8    -0.08  -0.02   0.00    -0.04  -0.02  -0.06    -0.05  -0.00   0.31
    23   7    -0.05  -0.04  -0.03    -0.03  -0.03   0.08     0.01  -0.00  -0.11
    24   6     0.03  -0.09  -0.01     0.02  -0.05   0.09     0.00   0.02   0.09
    25   1     0.03  -0.09  -0.01     0.02  -0.04   0.07    -0.01   0.03   0.17
    26   7     0.05  -0.08  -0.00     0.03  -0.04   0.08     0.01   0.03   0.04
    27   6     0.06  -0.04   0.03     0.04  -0.01  -0.01     0.02   0.03   0.03
    28   6     0.07  -0.15   0.03    -0.02   0.18  -0.03    -0.01   0.05   0.02
    29   6     0.01   0.06  -0.04     0.06  -0.10   0.07     0.04   0.01   0.02
    30   1     0.08  -0.01   0.12     0.08  -0.06  -0.14     0.02   0.02   0.01
    31   6     0.09  -0.05   0.06    -0.02   0.18  -0.12    -0.02   0.02  -0.02
    32   1     0.01  -0.20  -0.06    -0.03   0.23   0.10     0.00   0.07   0.05
    33   1     0.12  -0.24   0.10    -0.04   0.26  -0.10    -0.04   0.08   0.01
    34   6     0.03   0.16  -0.03     0.07  -0.09  -0.02     0.04  -0.03  -0.00
    35   1    -0.04   0.03  -0.11     0.04  -0.07   0.18     0.06   0.02   0.03
    36   1     0.02   0.11  -0.04     0.10  -0.21   0.07     0.06   0.01   0.03
    37   6     0.02   0.09  -0.03     0.02   0.06  -0.03     0.02  -0.03  -0.01
    38   1     0.08  -0.11   0.05    -0.05   0.30  -0.13    -0.04   0.03  -0.03
    39   1     0.16  -0.00   0.16    -0.01   0.13  -0.25    -0.04   0.00  -0.05
    40   1    -0.01   0.24  -0.08     0.08  -0.16   0.04     0.07  -0.06   0.00
    41   1     0.10   0.20   0.05     0.08  -0.14  -0.12     0.02  -0.04  -0.02
    42   1     0.04   0.19  -0.02     0.02   0.04  -0.09     0.02  -0.07  -0.03
    43   1    -0.08   0.05  -0.12     0.03   0.10   0.09     0.06  -0.02   0.01
    44   1    -0.05   0.07   0.02    -0.01   0.04  -0.11    -0.00   0.01  -0.06
    45   1     0.06  -0.09  -0.01     0.04  -0.05   0.09     0.03   0.02  -0.04
    46   6    -0.02  -0.09  -0.01    -0.06  -0.05   0.01     0.15  -0.00  -0.03
    47   1    -0.02  -0.11  -0.01    -0.06  -0.07   0.04     0.16   0.02  -0.15
    48   1    -0.05  -0.09  -0.02    -0.08  -0.05   0.01     0.18   0.00  -0.03
    49   1    -0.01  -0.08  -0.00    -0.07  -0.04  -0.00     0.24  -0.01   0.04
    50   6    -0.05  -0.08  -0.01    -0.00  -0.05   0.02    -0.15  -0.05  -0.07
    51   1    -0.07  -0.08  -0.02    -0.01  -0.05   0.02    -0.16  -0.06  -0.06
    52   1    -0.04  -0.10  -0.03    -0.00  -0.06   0.04    -0.13  -0.07  -0.21
    53   1    -0.06  -0.07  -0.01     0.02  -0.05   0.01    -0.27  -0.07  -0.02
    54   6     0.02  -0.06   0.01     0.00  -0.04  -0.00     0.01  -0.02   0.03
    55   1     0.03  -0.05   0.02    -0.01  -0.03  -0.01     0.07  -0.01   0.08
    56   1     0.03  -0.04   0.02     0.02  -0.04  -0.01    -0.07  -0.02   0.06
    57   1     0.03  -0.09   0.01     0.01  -0.05   0.01     0.02  -0.03  -0.06
    58   6     0.06   0.07  -0.01     0.02   0.03   0.03    -0.01  -0.00  -0.02
    59   1     0.07   0.05  -0.01     0.02   0.02   0.03    -0.02   0.01  -0.02
    60   1     0.06   0.06  -0.01     0.03   0.02   0.03    -0.01  -0.00  -0.02
    61   1     0.08   0.10  -0.02     0.03   0.05   0.03    -0.02  -0.00  -0.01
    62   6    -0.01   0.12  -0.02    -0.02   0.06   0.02    -0.08   0.03  -0.00
    63   1     0.03   0.17  -0.03    -0.01   0.08   0.02    -0.11  -0.00   0.10
    64   1    -0.06   0.13  -0.02    -0.04   0.06   0.02    -0.04   0.02  -0.05
    65   1     0.01   0.08  -0.01    -0.01   0.05   0.02    -0.16   0.12  -0.04
    66   6    -0.02   0.13  -0.02    -0.02   0.06   0.02     0.05  -0.04   0.00
    67   1    -0.02   0.13  -0.02    -0.02   0.05   0.02     0.10  -0.09  -0.01
    68   1    -0.05   0.14  -0.00    -0.05   0.07   0.02     0.04  -0.04  -0.03
    69   1    -0.00   0.15  -0.03    -0.01   0.08   0.02     0.06  -0.02   0.08
                     10                     11                     12
                      A                      A                      A
 Frequencies --    111.0963               122.7437               138.4908
 Red. masses --      3.4475                 3.6554                 3.7624
 Frc consts  --      0.0251                 0.0324                 0.0425
 IR Inten    --      0.8146                 3.0016                 0.0667
  Atom  AN      X      Y      Z        X      Y      Z        X      Y      Z
     1   6    -0.00   0.00   0.07     0.01  -0.01  -0.05    -0.01  -0.06   0.01
     2   6    -0.00   0.01   0.10     0.02  -0.01  -0.04    -0.01  -0.08  -0.00
     3   6     0.01   0.01   0.03     0.04   0.00   0.00    -0.04  -0.09  -0.02
     4   6     0.03  -0.00  -0.09     0.05  -0.00   0.04    -0.06  -0.08  -0.01
     5   6     0.03  -0.01  -0.12     0.05  -0.02   0.03    -0.06  -0.06   0.01
     6   6     0.01  -0.01  -0.03     0.02  -0.03  -0.02    -0.03  -0.04   0.02
     7   6    -0.00   0.00   0.09     0.02  -0.01  -0.05     0.01  -0.06   0.01
     8   1     0.01   0.01   0.05     0.04   0.02   0.02    -0.04  -0.12  -0.04
     9   1     0.04  -0.00  -0.17     0.05   0.00   0.08    -0.07  -0.09  -0.02
    10   1     0.04  -0.02  -0.22     0.06  -0.03   0.06    -0.07  -0.04   0.02
    11   7    -0.01   0.01   0.14     0.02  -0.01  -0.06     0.00  -0.08  -0.00
    12   6     0.00   0.01   0.02     0.04   0.01   0.01     0.01  -0.03   0.01
    13   6     0.00   0.00   0.01     0.04  -0.00  -0.02     0.00  -0.05   0.00
    14   6     0.01  -0.00  -0.11     0.03  -0.00   0.00    -0.01  -0.05  -0.01
    15   6     0.02  -0.00  -0.15     0.02  -0.00   0.03    -0.01  -0.05  -0.01
    16   6     0.01  -0.00  -0.13     0.02   0.00   0.05    -0.02  -0.06  -0.01
    17   6     0.01   0.00  -0.04     0.03   0.02   0.03    -0.01  -0.03   0.01
    18   1     0.02  -0.00  -0.12     0.04  -0.01  -0.01    -0.01  -0.05  -0.01
    19   1     0.02  -0.00  -0.17     0.00   0.01   0.07    -0.02  -0.06  -0.02
    20   6     0.01   0.00  -0.05     0.03  -0.01   0.02     0.06   0.05  -0.01
    21   6     0.00   0.01  -0.00     0.01   0.06   0.01    -0.06   0.08   0.00
    22   8     0.00   0.01   0.07     0.04   0.02   0.01     0.01  -0.02   0.01
    23   7    -0.00   0.00   0.08     0.02  -0.01  -0.06     0.01  -0.06   0.02
    24   6     0.01  -0.03  -0.04     0.01  -0.09  -0.01    -0.02  -0.01   0.02
    25   1     0.02  -0.04  -0.13     0.05  -0.12  -0.03    -0.04   0.01   0.04
    26   7    -0.01  -0.03   0.04    -0.05  -0.12   0.02     0.01   0.00  -0.01
    27   6    -0.01  -0.03   0.02    -0.06  -0.13   0.02     0.02   0.02  -0.01
    28   6    -0.03  -0.01   0.02    -0.08  -0.08   0.01     0.03   0.02  -0.01
    29   6    -0.02  -0.04   0.03    -0.10  -0.13   0.06     0.02   0.03  -0.02
    30   1    -0.00  -0.04   0.01    -0.05  -0.14  -0.00     0.03   0.03  -0.01
    31   6    -0.02   0.03  -0.01    -0.05   0.08  -0.02     0.02  -0.01   0.00
    32   1    -0.06  -0.01   0.02    -0.18  -0.10   0.01     0.05   0.03  -0.00
    33   1    -0.02  -0.02   0.02    -0.02  -0.13   0.02     0.02   0.03  -0.02
    34   6    -0.01   0.01  -0.00    -0.08   0.04  -0.01     0.01  -0.01   0.01
    35   1    -0.05  -0.03   0.06    -0.21  -0.12   0.13     0.04   0.02  -0.04
    36   1     0.00  -0.07   0.04    -0.07  -0.23   0.06     0.01   0.05  -0.02
    37   6    -0.04   0.04  -0.01    -0.15   0.17  -0.03     0.04  -0.04   0.01
    38   1    -0.04   0.04  -0.01    -0.09   0.13  -0.03     0.03  -0.02   0.01
    39   1     0.01   0.03  -0.01     0.08   0.10  -0.03    -0.01  -0.02   0.00
    40   1    -0.02   0.01  -0.00    -0.14   0.07   0.00     0.02  -0.01   0.00
    41   1     0.03   0.01  -0.02     0.05   0.04  -0.06    -0.02  -0.00   0.02
    42   1    -0.03   0.09  -0.04    -0.12   0.35  -0.10     0.03  -0.08   0.04
    43   1    -0.09   0.04  -0.00    -0.34   0.17  -0.00     0.09  -0.04   0.01
    44   1    -0.00   0.01   0.13     0.02  -0.01  -0.04     0.01  -0.09  -0.01
    45   1    -0.02  -0.03   0.11    -0.09  -0.10   0.02     0.03  -0.01  -0.02
    46   6     0.02  -0.06  -0.03     0.05   0.10   0.01    -0.02   0.13  -0.00
    47   1     0.02  -0.05  -0.03     0.04   0.13  -0.02    -0.06   0.21  -0.01
    48   1     0.04  -0.06  -0.09     0.08   0.11   0.03     0.06   0.14   0.01
    49   1     0.03  -0.11  -0.01     0.05   0.10   0.01    -0.05   0.09  -0.00
    50   6    -0.02   0.07  -0.05     0.01   0.07   0.01    -0.04   0.15  -0.01
    51   1    -0.02   0.06  -0.10     0.03   0.07   0.01    -0.01   0.15  -0.04
    52   1    -0.01   0.06  -0.04     0.00   0.09  -0.01    -0.06   0.18  -0.00
    53   1    -0.03   0.12  -0.02    -0.00   0.06   0.01    -0.06   0.15   0.00
    54   6    -0.01   0.01   0.09    -0.03   0.06  -0.02    -0.17   0.08  -0.00
    55   1    -0.05  -0.05   0.10    -0.01   0.06  -0.00    -0.18   0.04   0.01
    56   1     0.03   0.07   0.10    -0.07   0.03  -0.01    -0.22   0.05   0.01
    57   1    -0.02   0.01   0.16    -0.04   0.08  -0.06    -0.20   0.14  -0.03
    58   6     0.01   0.01   0.05     0.02  -0.01  -0.01     0.19   0.02   0.00
    59   1    -0.03   0.07   0.04     0.04  -0.02  -0.01     0.23  -0.02   0.02
    60   1     0.03  -0.06   0.05     0.01   0.01  -0.01     0.19  -0.02   0.02
    61   1     0.00   0.01   0.12     0.03  -0.01  -0.03     0.24   0.10  -0.02
    62   6    -0.09   0.11  -0.02     0.04  -0.03   0.02     0.03   0.13  -0.01
    63   1    -0.18  -0.01   0.19     0.06  -0.01  -0.03     0.06   0.18   0.02
    64   1     0.06   0.06  -0.16     0.01  -0.02   0.05    -0.01   0.14  -0.04
    65   1    -0.22   0.35  -0.07     0.07  -0.08   0.02     0.03   0.14  -0.01
    66   6     0.10  -0.09  -0.01     0.02   0.01   0.02     0.05   0.14   0.00
    67   1     0.18  -0.21  -0.02     0.01   0.04   0.01     0.09   0.10  -0.01
    68   1     0.05  -0.09  -0.10     0.04   0.01   0.04    -0.04   0.16   0.01
[...]
 ! A60   A(24,26,45)            -0.0306                  1.3                    !
 --------------------------------------------------------------------------------
                           ----------------------------
                           ! Normal Mode   197        !
 --------------------------                            --------------------------
 ! Name  Definition              Value          Relative Weight (%)             !
 --------------------------------------------------------------------------------
 ! R20   R(13,14)               -0.0447                  2.9                    !
 ! R21   R(14,15)               -0.0447                  2.9                    !
 ! R22   R(14,18)                1.0812                 69.0                    !
 ! R68   R(62,64)                0.039                   2.5                    !
 ! A29   A(7,13,14)              0.0297                  1.9                    !
 ! A30   A(12,13,14)            -0.0277                  1.8                    !
 ! A31   A(13,14,15)             0.0566                  3.6                    !
 ! A32   A(13,14,18)            -0.0251                  1.6                    !
 ! A33   A(15,14,18)            -0.0316                  2.0                    !
 ! A34   A(14,15,16)            -0.0269                  1.7                    !
 ! A35   A(14,15,20)             0.029                   1.9                    !
 --------------------------------------------------------------------------------
                           ----------------------------
                           ! Normal Mode   198        !
 --------------------------                            --------------------------
 ! Name  Definition              Value          Relative Weight (%)             !
 --------------------------------------------------------------------------------
 ! R4    R(2,3)                  0.0382                  1.9                    !
 ! R6    R(3,4)                  0.0657                  3.2                    !
 ! R7    R(3,8)                 -0.8347                 40.8                    !
 ! R8    R(4,5)                  0.0346                  1.7                    !
 ! R9    R(4,9)                 -0.6714                 32.8                    !
 ! R11   R(5,10)                -0.1757                  8.6                    !
 ! A7    A(2,3,4)               -0.0264                  1.3                    !
 --------------------------------------------------------------------------------
                           ----------------------------
                           ! Normal Mode   199        !
 --------------------------                            --------------------------
 ! Name  Definition              Value          Relative Weight (%)             !
 --------------------------------------------------------------------------------
 ! R23   R(15,16)                0.0417                  2.7                    !
 ! R25   R(16,17)                0.0434                  2.8                    !
 ! R26   R(16,19)               -1.0812                 69.2                    !
 ! R62   R(54,56)               -0.0172                  1.1                    !
 ! R64   R(58,59)               -0.0126                  0.8                    !
 ! A34   A(14,15,16)             0.0278                  1.8                    !
 ! A36   A(16,15,20)            -0.029                   1.9                    !
 ! A37   A(15,16,17)            -0.0568                  3.6                    !
 ! A38   A(15,16,19)             0.0277                  1.8                    !
 ! A39   A(17,16,19)             0.0291                  1.9                    !
 ! A40   A(12,17,16)             0.028                   1.8                    !
 ! A42   A(16,17,21)            -0.0294                  1.9                    !
 --------------------------------------------------------------------------------
                           ----------------------------
                           ! Normal Mode   200        !
 --------------------------                            --------------------------
 ! Name  Definition              Value          Relative Weight (%)             !
 --------------------------------------------------------------------------------
 ! R34   R(24,25)                0.0775                  4.6                    !
 ! R35   R(24,26)                0.0326                  1.9                    !
 ! R36   R(26,27)                0.0339                  2.0                    !
 ! R37   R(26,45)               -1.0681                 63.3                    !
 ! A57   A(6,24,26)             -0.024                   1.4                    !
 ! A58   A(25,24,26)             0.0296                  1.8                    !
 ! A59   A(24,26,27)            -0.05                    3.0                    !
 ! A61   A(27,26,45)             0.0517                  3.1                    !
 ! A63   A(26,27,29)             0.0194                  1.1                    !
 ! A64   A(26,27,30)            -0.0239                  1.4                    !
 ! D139  D(24,26,27,28)         -0.0126                  0.7                    !
 ! D142  D(45,26,27,28)         -0.0118                  0.7                    !
 ! D145  D(26,27,28,31)          0.0261                  1.5                    !
 ! D146  D(26,27,28,32)          0.0263                  1.6                    !
 ! D147  D(26,27,28,33)          0.0264                  1.6                    !
 ! D154  D(26,27,29,34)         -0.0165                  1.0                    !
 ! D155  D(26,27,29,35)         -0.0159                  0.9                    !
 ! D156  D(26,27,29,36)         -0.0169                  1.0                    !
 --------------------------------------------------------------------------------
                           ----------------------------
                           ! Normal Mode   201        !
 --------------------------                            --------------------------
 ! Name  Definition              Value          Relative Weight (%)             !
 --------------------------------------------------------------------------------
 ! R5    R(2,11)                 0.0487                  3.4                    !
 ! R13   R(7,11)                 0.0427                  3.0                    !
 ! R16   R(11,44)               -1.0714                 74.8                    !
 ! A5    A(1,2,11)               0.0233                  1.6                    !
 ! A6    A(3,2,11)              -0.0246                  1.7                    !
 ! A19   A(11,7,13)             -0.0246                  1.7                    !
 ! A20   A(11,7,23)              0.0242                  1.7                    !
 ! A22   A(2,11,7)              -0.0481                  3.4                    !
 ! A23   A(2,11,44)              0.0556                  3.9                    !
 --------------------------------------------------------------------------------
 -------------------------------------------------------------------
 Center     Atomic                   Forces (Hartrees/Bohr)
 Number     Number              X              Y              Z
 -------------------------------------------------------------------
      1        6          -0.000003444   -0.000000528    0.000003992
      2        6          -0.000002954   -0.000002467    0.000005788
      3        6          -0.000003943   -0.000001852    0.000007861
      4        6          -0.000006193   -0.000001935    0.000007913
      5        6          -0.000005219    0.000000064    0.000006170
      6        6          -0.000004289    0.000000504    0.000004186
      7        6          -0.000001354   -0.000001108    0.000002842
      8        1          -0.000005367   -0.000003323    0.000009117
      9        1          -0.000006760   -0.000001902    0.000009514
     10        1          -0.000006355    0.000000229    0.000006413
     11        7          -0.000000906   -0.000002482    0.000005121
     12        6           0.000000983   -0.000002810    0.000002406
     13        6           0.000000553   -0.000001698    0.000001518
     14        6           0.000001840   -0.000001068   -0.000000416
     15        6           0.000002758   -0.000001319   -0.000002036
     16        6           0.000003322   -0.000002698   -0.000001146
     17        6           0.000002191   -0.000003303    0.000001100
     18        1           0.000000961   -0.000000030   -0.000001269
     19        1           0.000004552   -0.000002095   -0.000002135
     20        6           0.000003951    0.000000291   -0.000004655
     21        6           0.000002750   -0.000004746    0.000001998
     22        8           0.000000119   -0.000004183    0.000004454
     23        7          -0.000001969   -0.000000804    0.000002099
     24        6          -0.000003532    0.000001362    0.000002353
     25        1          -0.000004703    0.000002022    0.000002669
     26        7          -0.000001719    0.000002789    0.000000542
     27        6          -0.000002782    0.000003511   -0.000001019
     28        6          -0.000003832    0.000005235   -0.000002480
     29        6          -0.000002489    0.000003555   -0.000001792
     30        1          -0.000000756    0.000003155   -0.000002690
     31        6          -0.000003731    0.000007602   -0.000003915
     32        1          -0.000005322    0.000005922   -0.000000670
     33        1          -0.000003629    0.000006147   -0.000001952
     34        6          -0.000001535    0.000004808   -0.000002551
     35        1          -0.000003651    0.000003384    0.000000147
     36        1          -0.000001071    0.000001572   -0.000000470
     37        6          -0.000004157    0.000007503   -0.000004240
     38        1          -0.000004766    0.000008682   -0.000004450
     39        1          -0.000002206    0.000006637   -0.000005241
     40        1          -0.000002033    0.000004352   -0.000003146
     41        1          -0.000000372    0.000004286   -0.000004334
     42        1          -0.000002807    0.000007861   -0.000005099
     43        1          -0.000004912    0.000006910   -0.000002428
     44        1          -0.000002209   -0.000003550    0.000005723
     45        1          -0.000001973    0.000001065    0.000000281
     46        6           0.000001072   -0.000003361    0.000002687
     47        1           0.000001294   -0.000004641    0.000003631
     48        1          -0.000000224   -0.000003804    0.000004329
     49        1           0.000000325   -0.000002153    0.000002034
     50        6           0.000003303   -0.000006926    0.000003518
     51        1           0.000002528   -0.000006855    0.000004802
     52        1           0.000004333   -0.000007483    0.000004028
     53        1           0.000004993   -0.000007339    0.000002542
     54        6           0.000003964   -0.000004931   -0.000000355
     55        1           0.000003955   -0.000002977   -0.000000891
     56        1           0.000006086   -0.000005349   -0.000000325
     57        1           0.000005294   -0.000005254    0.000000877
     58        6           0.000005241   -0.000000624   -0.000005995
     59        1           0.000006632   -0.000002021   -0.000005027
     60        1           0.000004996    0.000000166   -0.000005070
     61        1           0.000006202    0.000000423   -0.000007265
     62        6           0.000005254   -0.000000526   -0.000004626
     63        1           0.000005730    0.000000133   -0.000006467
     64        1           0.000003928   -0.000000355   -0.000003935
     65        1           0.000006033   -0.000002288   -0.000004121
     66        6           0.000002214    0.000001953   -0.000004692
     67        1           0.000001490    0.000002774   -0.000004812
     68        1           0.000001196    0.000002888   -0.000004194
     69        1           0.000003120    0.000003004   -0.000006748
 -------------------------------------------------------------------
 Cartesian Forces:  Max     0.000009514 RMS     0.000003968
 FormGI is forming the generalized inverse of G from B-inverse, IUseBI=4.
 GSVD:  received Info=                   1 from GESDD.
 Leave Link  716 at Fri Dec 21 18:10:18 2018, MaxMem=  1342177280 cpu:               5.7 elap:               0.4
 (Enter /gpfs/apps/hpc/Apps/Restricted/Gaussian/Rev_A.03/g16/l9999.exe)

 ----------------------------------------------------------------------

 Electric dipole moment (input orientation):
 (Debye = 10**-18 statcoulomb cm , SI units = C m)
                  (au)            (Debye)         (10**-30 SI)
   Tot        0.405962D+01      0.103185D+02      0.344189D+02
   x          0.238780D+01      0.606919D+01      0.202446D+02
   y          0.316402D+01      0.804213D+01      0.268256D+02
   z          0.876286D+00      0.222730D+01      0.742946D+01

 Dipole polarizability, Alpha (input orientation).
 (esu units = cm**3 , SI units = C**2 m**2 J**-1)
 Alpha(0;0):
               (au)            (10**-24 esu)      (10**-40 SI)
   iso        0.520048D+03      0.770632D+02      0.857443D+02
   aniso      0.398665D+03      0.590761D+02      0.657311D+02
   xx         0.593162D+03      0.878976D+02      0.977992D+02
   yx         0.217685D+02      0.322577D+01      0.358915D+01
   yy         0.702632D+03      0.104119D+03      0.115848D+03
   zx         0.188286D+02      0.279012D+01      0.310442D+01
   zy        -0.108423D+02     -0.160666D+01     -0.178766D+01
   zz         0.264350D+03      0.391726D+02      0.435854D+02

 ----------------------------------------------------------------------

 Dipole orientation:
     6         -3.11731543          2.37434560          3.61725925
     6         -5.05600351          3.74392455          2.37676505
     6         -6.59072839          5.46714100          3.64454677
     6         -6.15979702          5.80127344          6.22977943
     6         -4.26435257          4.46793637          7.50205866
     6         -2.69643631          2.73787181          6.23374768
     6         -3.02602945          1.21726774         -0.28223489
     1         -8.05562610          6.50992173          2.66898763
     1         -7.32295837          7.12303122          7.27161482
     1         -3.98419594          4.76875371          9.50837784
     7         -4.92826702          2.95040463         -0.09204546
     6         -3.66473052          0.60036682         -4.99173189
     6         -2.34073873         -0.02366655         -2.63074056
     6         -0.41460656         -1.78194299         -2.62590415
     6          0.33618031         -3.03160293         -4.85269266
     6         -0.92527706         -2.44510527         -7.13258923
     6         -2.86091371         -0.70336969         -7.30444940
     1          0.52995236         -2.19436983         -0.85909108
     1         -0.33329988         -3.41311433         -8.82614719
     6          2.50083875         -4.92648806         -4.72464260
     6         -4.15616706         -0.10546279         -9.81292567
     8         -5.42172229          2.20510231         -5.00462220
     7         -1.88460934          0.82703532          1.95300844
     6         -0.74323745          1.43649744          7.56930367
     1         -0.51221364          1.78533317          9.57519084
     7          0.79766228         -0.14801326          6.50135489
     6          2.91448314         -1.44890423          7.77235734
     6          5.23379970          0.29701331          7.87727070
     6          2.18409848         -2.40959402         10.40252433
     1          3.34489631         -3.06563549          6.56257362
     6          7.46113727         -1.04579890          9.15139846
     1          4.71918454          1.99201227          8.95017654
     1          5.73774020          0.90294881          5.96750939
     6          4.42784761         -3.76379896         11.63737364
     1          1.64021393         -0.81202291         11.60030792
     1          0.54789013         -3.66165757         10.25401688
     6          6.74754241         -2.03548299         11.77700120
     1          9.06553535          0.25073113          9.27049413
     1          8.06151105         -2.63435702          7.96456480
     1          3.87988728         -4.40317892         13.52437299
     1          4.89755523         -5.45855143         10.54167088
     1          8.34226509         -3.04886427         12.61415722
     1          6.32991027         -0.43394446         13.02502634
     1         -5.96548670          3.45666131         -1.62703904
     1          0.56445864         -0.41342282          4.59220065
     6         -3.74898125          2.70940865        -10.47576544
     1         -4.67980934          3.12882964        -12.27226191
     1         -4.53009356          3.94210480         -9.02492956
     1         -1.73628525          3.12544870        -10.68460116
     6         -7.01400411         -0.67086663         -9.61158567
     1         -7.90322309          0.51001384         -8.18191139
     1         -7.91389156         -0.30326943        -11.43505097
     1         -7.32887212         -2.65377746         -9.12361578
     6         -3.07949560         -1.70357435        -11.98558942
     1         -1.06421823         -1.35383012        -12.27414679
     1         -3.35035190         -3.72400876        -11.65180792
     1         -4.06546145         -1.20876352        -13.72965862
     6          3.05761351         -6.16254174         -7.28739305
     1          1.43454335         -7.22986068         -7.99013578
     1          3.58382239         -4.75962025         -8.70845706
     1          4.63668092         -7.47504465         -7.07982488
     6          1.83279047         -7.01323366         -2.79861702
     1          3.39906585         -8.35338567         -2.67082114
     1          1.50155613         -6.23373328         -0.91617998
     1          0.14304018         -8.04508040         -3.38320281
     6          4.89221806         -3.51697883         -3.81828233
     1          5.42448044         -2.03917380         -5.15878863
     1          4.59303368         -2.64144046         -1.97314837
     1          6.46442842         -4.84687035         -3.65636907

 Electric dipole moment (dipole orientation):
 (Debye = 10**-18 statcoulomb cm , SI units = C m)
                  (au)            (Debye)         (10**-30 SI)
   Tot        0.405962D+01      0.103185D+02      0.344189D+02
   x          0.000000D+00      0.000000D+00      0.000000D+00
   y          0.000000D+00      0.000000D+00      0.000000D+00
   z          0.405962D+01      0.103185D+02      0.344189D+02

 Dipole polarizability, Alpha (dipole orientation).
 (esu units = cm**3 , SI units = C**2 m**2 J**-1)
 Alpha(0;0):
               (au)            (10**-24 esu)      (10**-40 SI)
   iso        0.520048D+03      0.770632D+02      0.857443D+02
   aniso      0.398665D+03      0.590761D+02      0.657311D+02
   xx         0.462568D+03      0.685454D+02      0.762671D+02
   yx        -0.166820D+03     -0.247201D+02     -0.275049D+02
   yy         0.432146D+03      0.640375D+02      0.712513D+02
   zx         0.191357D+02      0.283562D+01      0.315505D+01
   zy         0.932723D+02      0.138215D+02      0.153785D+02
   zz         0.665430D+03      0.986066D+02      0.109715D+03

 ----------------------------------------------------------------------

 This type of calculation cannot be archived.


 ASKING DUMB QUESTIONS IS EASIER THAN CORECTING DUMB MISTAKES.
 Job cpu time:       0 days  0 hours  0 minutes 19.3 seconds.
 Elapsed time:       0 days  0 hours  0 minutes  1.4 seconds.
 File lengths (MBytes):  RWF=     72 Int=      0 D2E=      0 Chk=     76 Scr=      8
 Normal termination of Gaussian 16 at Fri Dec 21 18:10:18 2018.
