 Entering Gaussian System, Link 0=g16
 Initial command:
 /gpfs/apps/hpc/Apps/Restricted/Gaussian/g16/Rev_B.01-AVX/g16/l1.exe "/gpfs/scratch60/fas/hammes_schiffer/jg2487/c26n01/Gau-22073.inp" -scrdir="/gpfs/scratch60/fas/hammes_schiffer/jg2487/c26n01/"
 Entering Link 1 = /gpfs/apps/hpc/Apps/Restricted/Gaussian/g16/Rev_B.01-AVX/g16/l1.exe PID=     22074.
  
 Copyright (c) 1988-2017, Gaussian, Inc.  All Rights Reserved.
  
 This is part of the Gaussian(R) 16 program.  It is based on
 the Gaussian(R) 09 system (copyright 2009, Gaussian, Inc.),
 the Gaussian(R) 03 system (copyright 2003, Gaussian, Inc.),
 the Gaussian(R) 98 system (copyright 1998, Gaussian, Inc.),
 the Gaussian(R) 94 system (copyright 1995, Gaussian, Inc.),
 the Gaussian 92(TM) system (copyright 1992, Gaussian, Inc.),
 the Gaussian 90(TM) system (copyright 1990, Gaussian, Inc.),
 the Gaussian 88(TM) system (copyright 1988, Gaussian, Inc.),
 the Gaussian 86(TM) system (copyright 1986, Carnegie Mellon
 University), and the Gaussian 82(TM) system (copyright 1983,
 Carnegie Mellon University). Gaussian is a federally registered
 trademark of Gaussian, Inc.
  
 This software contains proprietary and confidential information,
 including trade secrets, belonging to Gaussian, Inc.
  
 This software is provided under written license and may be
 used, copied, transmitted, or stored only in accord with that
 written license.
  
 The following legend is applicable only to US Government
 contracts under FAR:
  
                    RESTRICTED RIGHTS LEGEND
  
 Use, reproduction and disclosure by the US Government is
 subject to restrictions as set forth in subparagraphs (a)
 and (c) of the Commercial Computer Software - Restricted
 Rights clause in FAR 52.227-19.
  
 Gaussian, Inc.
 340 Quinnipiac St., Bldg. 40, Wallingford CT 06492
  
  
 ---------------------------------------------------------------
 Warning -- This program may not be used in any manner that
 competes with the business of Gaussian, Inc. or will provide
 assistance to any competitor of Gaussian, Inc.  The licensee
 of this program is prohibited from giving any competitor of
 Gaussian, Inc. access to this program.  By using this program,
 the user acknowledges that Gaussian, Inc. is engaged in the
 business of creating and licensing software in the field of
 computational chemistry and represents and warrants to the
 licensee that it is not a competitor of Gaussian, Inc. and that
 it will not use this program in any manner prohibited above.
 ---------------------------------------------------------------
  

 Cite this work as:
 Gaussian 16, Revision B.01,
 M. J. Frisch, G. W. Trucks, H. B. Schlegel, G. E. Scuseria, 
 M. A. Robb, J. R. Cheeseman, G. Scalmani, V. Barone, 
 G. A. Petersson, H. Nakatsuji, X. Li, M. Caricato, A. V. Marenich, 
 J. Bloino, B. G. Janesko, R. Gomperts, B. Mennucci, H. P. Hratchian, 
 J. V. Ortiz, A. F. Izmaylov, J. L. Sonnenberg, D. Williams-Young, 
 F. Ding, F. Lipparini, F. Egidi, J. Goings, B. Peng, A. Petrone, 
 T. Henderson, D. Ranasinghe, V. G. Zakrzewski, J. Gao, N. Rega, 
 G. Zheng, W. Liang, M. Hada, M. Ehara, K. Toyota, R. Fukuda, 
 J. Hasegawa, M. Ishida, T. Nakajima, Y. Honda, O. Kitao, H. Nakai, 
 T. Vreven, K. Throssell, J. A. Montgomery, Jr., J. E. Peralta, 
 F. Ogliaro, M. J. Bearpark, J. J. Heyd, E. N. Brothers, K. N. Kudin, 
 V. N. Staroverov, T. A. Keith, R. Kobayashi, J. Normand, 
 K. Raghavachari, A. P. Rendell, J. C. Burant, S. S. Iyengar, 
 J. Tomasi, M. Cossi, J. M. Millam, M. Klene, C. Adamo, R. Cammi, 
 J. W. Ochterski, R. L. Martin, K. Morokuma, O. Farkas, 
 J. B. Foresman, and D. J. Fox, Gaussian, Inc., Wallingford CT, 2016.
 
 ******************************************
 Gaussian 16:  ES64L-G16RevB.01 20-Dec-2017
                 6-Mar-2019 
 ******************************************
 %chk=unsub-monoBIP-neutral.chk
 %mem=10GB
 %nprocshared=16
 Will use up to   16 processors via shared memory.
 ----------------------------------------------------------------------
 #p opt=tight freq=internalmodes b3lyp/6-31g(d,p) scrf=(cpcm,solvent=di
 chloromethane,read) nosymm empiricaldispersion=gd3bj int=grid=ultrafin
 e
 ----------------------------------------------------------------------
 1/7=10,18=20,19=15,26=6,38=1,40=2/1,3;
 2/9=110,12=2,15=1,17=6,18=5,40=1/2;
 3/5=1,6=6,7=101,11=2,25=1,30=1,70=2103,71=1,72=9,74=-5,75=-5,124=41/1,2,3;
 4//1;
 5/5=2,38=5,53=9/2;
 6/7=2,8=2,9=2,10=2,28=1/1;
 7/30=1/1,2,3,16;
 1/7=10,18=20,19=15,26=6/3(2);
 2/9=110,15=1/2;
 99//99;
 2/9=110,15=1/2;
 3/5=1,6=6,7=101,11=2,25=1,30=1,70=2105,71=1,72=9,74=-5,75=-5,124=41/1,2,3;
 4/5=5,16=3,69=1/1;
 5/5=2,38=5,53=9/2;
 7/30=1/1,2,3,16;
 1/7=10,18=20,19=15,26=6/3(-5);
 2/9=110,15=1/2;
 6/7=2,8=2,9=2,10=2,19=2,28=1/1;
 99/9=1/99;
 Leave Link    1 at Wed Mar  6 12:03:10 2019, MaxMem=  1342177280 cpu:              10.1 elap:               0.8
 (Enter /gpfs/apps/hpc/Apps/Restricted/Gaussian/g16/Rev_B.01-AVX/g16/l101.exe)
 -----------------------------------------
 Simple unsub-monoBIP neutral optimization
 -----------------------------------------
 Symbolic Z-matrix:
 Charge =  0 Multiplicity = 1
 C                    -0.48305   2.71558   0.41615 
 C                    -1.88105   2.89836   0.3276 
 C                    -2.41289   4.19012   0.24342 
 C                    -1.52046   5.26199   0.25628 
 C                    -0.1336    5.06453   0.35031 
 C                     0.42705   3.78269   0.4298 
 C                    -1.51854   0.75202   0.42465 
 H                    -3.48208   4.34634   0.16902 
 H                    -1.90527   6.27315   0.19413 
 H                     0.52954   5.92276   0.36062 
 N                    -2.49643   1.65628   0.3363 
 C                    -3.06367  -1.18904   0.35231 
 C                    -1.73922  -0.685     0.44727 
 C                    -0.65872  -1.57362   0.5405 
 C                    -0.84876  -2.95029   0.54136 
 C                    -2.16787  -3.41764   0.44645 
 C                    -3.28613  -2.585     0.35333 
 H                     0.34704  -1.17537   0.61268 
 H                    -2.33231  -4.48383   0.44549 
 C                     0.36142  -3.8878    0.61444 
 C                    -4.7052   -3.16741   0.25339 
 O                    -4.11726  -0.34688   0.2575 
 H                    -3.76781   0.59151   0.26864 
 N                    -0.28701   1.3566    0.47644 
 H                     0.63826   0.94763   0.52815 
 C                     1.24578  -3.65452  -0.62729 
 H                     1.57556  -2.61431  -0.68351 
 H                     2.13382  -4.29238  -0.58864 
 H                     0.69738  -3.88708  -1.54418 
 C                     1.18279  -3.57555   1.88073 
 H                     0.58865  -3.74389   2.78286 
 H                     2.06432  -4.22163   1.92639 
 H                     1.5249   -2.53763   1.88737 
 C                    -0.04946  -5.36609   0.6521 
 H                    -0.66468  -5.59167   1.5274 
 H                    -0.60816  -5.65207  -0.24333 
 H                     0.84524  -5.99164   0.70128 
 C                    -5.359    -2.73216  -1.07525 
 H                    -6.37293  -3.13823  -1.13996 
 H                    -5.4137   -1.64727  -1.15536 
 H                    -4.78635  -3.11382  -1.92528 
 C                    -5.55747  -2.68255   1.44569 
 H                    -5.65813  -1.59821   1.44663 
 H                    -6.55655  -3.12577   1.39415 
 H                    -5.09796  -2.98688   2.39028 
 C                    -4.69423  -4.70466   0.28382 
 H                    -4.12605  -5.1234   -0.55106 
 H                    -4.26884  -5.08976   1.21438 
 H                    -5.72146  -5.06914   0.20754 
 H                     1.48364   3.62767   0.49675 
 
 ITRead=  0  0  0  0  0  0  0  0  0  0  0  0  0  0  0  0  0  0  0  0
 ITRead=  0  0  0  0  0  0  0  0  0  0  0  0  0  0  0  0  0  0  0  0
 ITRead=  0  0  0  0  0  0  0  0  0  0
 MicOpt= -1 -1 -1 -1 -1 -1 -1 -1 -1 -1 -1 -1 -1 -1 -1 -1 -1 -1 -1 -1
 MicOpt= -1 -1 -1 -1 -1 -1 -1 -1 -1 -1 -1 -1 -1 -1 -1 -1 -1 -1 -1 -1
 MicOpt= -1 -1 -1 -1 -1 -1 -1 -1 -1 -1
 NAtoms=     50 NQM=       50 NQMF=       0 NMMI=      0 NMMIF=      0
                NMic=       0 NMicF=      0.
                    Isotopes and Nuclear Properties:
 (Nuclear quadrupole moments (NQMom) in fm**2, nuclear magnetic moments (NMagM)
  in nuclear magnetons)

  Atom         1           2           3           4           5           6           7           8           9          10
 IAtWgt=          12          12          12          12          12          12          12           1           1           1
 AtmWgt=  12.0000000  12.0000000  12.0000000  12.0000000  12.0000000  12.0000000  12.0000000   1.0078250   1.0078250   1.0078250
 NucSpn=           0           0           0           0           0           0           0           1           1           1
 AtZEff=  -0.0000000  -0.0000000  -0.0000000  -0.0000000  -0.0000000  -0.0000000  -0.0000000  -0.0000000  -0.0000000  -0.0000000
 NQMom=    0.0000000   0.0000000   0.0000000   0.0000000   0.0000000   0.0000000   0.0000000   0.0000000   0.0000000   0.0000000
 NMagM=    0.0000000   0.0000000   0.0000000   0.0000000   0.0000000   0.0000000   0.0000000   2.7928460   2.7928460   2.7928460
 AtZNuc=   6.0000000   6.0000000   6.0000000   6.0000000   6.0000000   6.0000000   6.0000000   1.0000000   1.0000000   1.0000000

  Atom        11          12          13          14          15          16          17          18          19          20
 IAtWgt=          14          12          12          12          12          12          12           1           1          12
 AtmWgt=  14.0030740  12.0000000  12.0000000  12.0000000  12.0000000  12.0000000  12.0000000   1.0078250   1.0078250  12.0000000
 NucSpn=           2           0           0           0           0           0           0           1           1           0
 AtZEff=  -0.0000000  -0.0000000  -0.0000000  -0.0000000  -0.0000000  -0.0000000  -0.0000000  -0.0000000  -0.0000000  -0.0000000
 NQMom=    2.0440000   0.0000000   0.0000000   0.0000000   0.0000000   0.0000000   0.0000000   0.0000000   0.0000000   0.0000000
 NMagM=    0.4037610   0.0000000   0.0000000   0.0000000   0.0000000   0.0000000   0.0000000   2.7928460   2.7928460   0.0000000
 AtZNuc=   7.0000000   6.0000000   6.0000000   6.0000000   6.0000000   6.0000000   6.0000000   1.0000000   1.0000000   6.0000000

  Atom        21          22          23          24          25          26          27          28          29          30
 IAtWgt=          12          16           1          14           1          12           1           1           1          12
 AtmWgt=  12.0000000  15.9949146   1.0078250  14.0030740   1.0078250  12.0000000   1.0078250   1.0078250   1.0078250  12.0000000
 NucSpn=           0           0           1           2           1           0           1           1           1           0
 AtZEff=  -0.0000000  -0.0000000  -0.0000000  -0.0000000  -0.0000000  -0.0000000  -0.0000000  -0.0000000  -0.0000000  -0.0000000
 NQMom=    0.0000000   0.0000000   0.0000000   2.0440000   0.0000000   0.0000000   0.0000000   0.0000000   0.0000000   0.0000000
 NMagM=    0.0000000   0.0000000   2.7928460   0.4037610   2.7928460   0.0000000   2.7928460   2.7928460   2.7928460   0.0000000
 AtZNuc=   6.0000000   8.0000000   1.0000000   7.0000000   1.0000000   6.0000000   1.0000000   1.0000000   1.0000000   6.0000000

  Atom        31          32          33          34          35          36          37          38          39          40
 IAtWgt=           1           1           1          12           1           1           1          12           1           1
 AtmWgt=   1.0078250   1.0078250   1.0078250  12.0000000   1.0078250   1.0078250   1.0078250  12.0000000   1.0078250   1.0078250
 NucSpn=           1           1           1           0           1           1           1           0           1           1
 AtZEff=  -0.0000000  -0.0000000  -0.0000000  -0.0000000  -0.0000000  -0.0000000  -0.0000000  -0.0000000  -0.0000000  -0.0000000
 NQMom=    0.0000000   0.0000000   0.0000000   0.0000000   0.0000000   0.0000000   0.0000000   0.0000000   0.0000000   0.0000000
 NMagM=    2.7928460   2.7928460   2.7928460   0.0000000   2.7928460   2.7928460   2.7928460   0.0000000   2.7928460   2.7928460
 AtZNuc=   1.0000000   1.0000000   1.0000000   6.0000000   1.0000000   1.0000000   1.0000000   6.0000000   1.0000000   1.0000000

  Atom        41          42          43          44          45          46          47          48          49          50
 IAtWgt=           1          12           1           1           1          12           1           1           1           1
 AtmWgt=   1.0078250  12.0000000   1.0078250   1.0078250   1.0078250  12.0000000   1.0078250   1.0078250   1.0078250   1.0078250
 NucSpn=           1           0           1           1           1           0           1           1           1           1
 AtZEff=  -0.0000000  -0.0000000  -0.0000000  -0.0000000  -0.0000000  -0.0000000  -0.0000000  -0.0000000  -0.0000000  -0.0000000
 NQMom=    0.0000000   0.0000000   0.0000000   0.0000000   0.0000000   0.0000000   0.0000000   0.0000000   0.0000000   0.0000000
 NMagM=    2.7928460   0.0000000   2.7928460   2.7928460   2.7928460   0.0000000   2.7928460   2.7928460   2.7928460   2.7928460
 AtZNuc=   1.0000000   6.0000000   1.0000000   1.0000000   1.0000000   6.0000000   1.0000000   1.0000000   1.0000000   1.0000000
 Leave Link  101 at Wed Mar  6 12:03:11 2019, MaxMem=  1342177280 cpu:               9.8 elap:               1.1
 (Enter /gpfs/apps/hpc/Apps/Restricted/Gaussian/g16/Rev_B.01-AVX/g16/l103.exe)

 GradGradGradGradGradGradGradGradGradGradGradGradGradGradGradGradGradGrad
 Berny optimization.
 Initialization pass.
                           ----------------------------
                           !    Initial Parameters    !
                           ! (Angstroms and Degrees)  !
 --------------------------                            --------------------------
 ! Name  Definition              Value          Derivative Info.                !
 --------------------------------------------------------------------------------
 ! R1    R(1,2)                  1.4127         estimate D2E/DX2                !
 ! R2    R(1,6)                  1.4026         estimate D2E/DX2                !
 ! R3    R(1,24)                 1.3744         estimate D2E/DX2                !
 ! R4    R(2,3)                  1.3995         estimate D2E/DX2                !
 ! R5    R(2,11)                 1.3862         estimate D2E/DX2                !
 ! R6    R(3,4)                  1.3948         estimate D2E/DX2                !
 ! R7    R(3,8)                  1.0831         estimate D2E/DX2                !
 ! R8    R(4,5)                  1.404          estimate D2E/DX2                !
 ! R9    R(4,9)                  1.0837         estimate D2E/DX2                !
 ! R10   R(5,6)                  1.4013         estimate D2E/DX2                !
 ! R11   R(5,10)                 1.0846         estimate D2E/DX2                !
 ! R12   R(6,50)                 1.07           estimate D2E/DX2                !
 ! R13   R(7,11)                 1.3348         estimate D2E/DX2                !
 ! R14   R(7,13)                 1.454          estimate D2E/DX2                !
 ! R15   R(7,24)                 1.3729         estimate D2E/DX2                !
 ! R16   R(12,13)                1.4203         estimate D2E/DX2                !
 ! R17   R(12,17)                1.4136         estimate D2E/DX2                !
 ! R18   R(12,22)                1.3521         estimate D2E/DX2                !
 ! R19   R(13,14)                1.4021         estimate D2E/DX2                !
 ! R20   R(14,15)                1.3897         estimate D2E/DX2                !
 ! R21   R(14,18)                1.0842         estimate D2E/DX2                !
 ! R22   R(15,16)                1.4027         estimate D2E/DX2                !
 ! R23   R(15,20)                1.5326         estimate D2E/DX2                !
 ! R24   R(16,17)                1.3973         estimate D2E/DX2                !
 ! R25   R(16,19)                1.0788         estimate D2E/DX2                !
 ! R26   R(17,21)                1.5372         estimate D2E/DX2                !
 ! R27   R(20,26)                1.5422         estimate D2E/DX2                !
 ! R28   R(20,30)                1.5413         estimate D2E/DX2                !
 ! R29   R(20,34)                1.5348         estimate D2E/DX2                !
 ! R30   R(21,38)                1.5434         estimate D2E/DX2                !
 ! R31   R(21,42)                1.5437         estimate D2E/DX2                !
 ! R32   R(21,46)                1.5376         estimate D2E/DX2                !
 ! R33   R(22,23)                1.0014         estimate D2E/DX2                !
 ! R34   R(24,25)                1.0129         estimate D2E/DX2                !
 ! R35   R(26,27)                1.0927         estimate D2E/DX2                !
 ! R36   R(26,28)                1.0941         estimate D2E/DX2                !
 ! R37   R(26,29)                1.0934         estimate D2E/DX2                !
 ! R38   R(30,31)                1.0932         estimate D2E/DX2                !
 ! R39   R(30,32)                1.0939         estimate D2E/DX2                !
 ! R40   R(30,33)                1.0929         estimate D2E/DX2                !
 ! R41   R(34,35)                1.0934         estimate D2E/DX2                !
 ! R42   R(34,36)                1.0935         estimate D2E/DX2                !
 ! R43   R(34,37)                1.0928         estimate D2E/DX2                !
 ! R44   R(38,39)                1.0941         estimate D2E/DX2                !
 ! R45   R(38,40)                1.0892         estimate D2E/DX2                !
 ! R46   R(38,41)                1.0937         estimate D2E/DX2                !
 ! R47   R(42,43)                1.089          estimate D2E/DX2                !
 ! R48   R(42,44)                1.0942         estimate D2E/DX2                !
 ! R49   R(42,45)                1.0936         estimate D2E/DX2                !
 ! R50   R(46,47)                1.0932         estimate D2E/DX2                !
 ! R51   R(46,48)                1.0933         estimate D2E/DX2                !
 ! R52   R(46,49)                1.0926         estimate D2E/DX2                !
 ! A1    A(2,1,6)              122.9781         estimate D2E/DX2                !
 ! A2    A(2,1,24)             105.7738         estimate D2E/DX2                !
 ! A3    A(6,1,24)             131.2481         estimate D2E/DX2                !
 ! A4    A(1,2,3)              119.9516         estimate D2E/DX2                !
 ! A5    A(1,2,11)             108.8443         estimate D2E/DX2                !
 ! A6    A(3,2,11)             131.2033         estimate D2E/DX2                !
 ! A7    A(2,3,4)              117.7494         estimate D2E/DX2                !
 ! A8    A(2,3,8)              120.8241         estimate D2E/DX2                !
 ! A9    A(4,3,8)              121.4265         estimate D2E/DX2                !
 ! A10   A(3,4,5)              121.6384         estimate D2E/DX2                !
 ! A11   A(3,4,9)              119.2951         estimate D2E/DX2                !
 ! A12   A(5,4,9)              119.0664         estimate D2E/DX2                !
 ! A13   A(4,5,6)              121.8461         estimate D2E/DX2                !
 ! A14   A(4,5,10)             119.5567         estimate D2E/DX2                !
 ! A15   A(6,5,10)             118.5972         estimate D2E/DX2                !
 ! A16   A(1,6,5)              115.8354         estimate D2E/DX2                !
 ! A17   A(1,6,50)             122.0823         estimate D2E/DX2                !
 ! A18   A(5,6,50)             122.0823         estimate D2E/DX2                !
 ! A19   A(11,7,13)            124.0113         estimate D2E/DX2                !
 ! A20   A(11,7,24)            111.1816         estimate D2E/DX2                !
 ! A21   A(13,7,24)            124.8037         estimate D2E/DX2                !
 ! A22   A(2,11,7)             106.3919         estimate D2E/DX2                !
 ! A23   A(13,12,17)           119.8125         estimate D2E/DX2                !
 ! A24   A(13,12,22)           120.6822         estimate D2E/DX2                !
 ! A25   A(17,12,22)           119.5052         estimate D2E/DX2                !
 ! A26   A(7,13,12)            119.4203         estimate D2E/DX2                !
 ! A27   A(7,13,14)            120.6936         estimate D2E/DX2                !
 ! A28   A(12,13,14)           119.8785         estimate D2E/DX2                !
 ! A29   A(13,14,15)           121.5            estimate D2E/DX2                !
 ! A30   A(13,14,18)           119.1133         estimate D2E/DX2                !
 ! A31   A(15,14,18)           119.3867         estimate D2E/DX2                !
 ! A32   A(14,15,16)           117.2975         estimate D2E/DX2                !
 ! A33   A(14,15,20)           119.8696         estimate D2E/DX2                !
 ! A34   A(16,15,20)           122.8203         estimate D2E/DX2                !
 ! A35   A(15,16,17)           123.9582         estimate D2E/DX2                !
 ! A36   A(15,16,19)           118.2098         estimate D2E/DX2                !
 ! A37   A(17,16,19)           117.8321         estimate D2E/DX2                !
 ! A38   A(12,17,16)           117.5531         estimate D2E/DX2                !
 ! A39   A(12,17,21)           121.2915         estimate D2E/DX2                !
 ! A40   A(16,17,21)           121.1554         estimate D2E/DX2                !
 ! A41   A(15,20,26)           108.7766         estimate D2E/DX2                !
 ! A42   A(15,20,30)           109.6365         estimate D2E/DX2                !
 ! A43   A(15,20,34)           112.2704         estimate D2E/DX2                !
 ! A44   A(26,20,30)           108.9818         estimate D2E/DX2                !
 ! A45   A(26,20,34)           108.6003         estimate D2E/DX2                !
 ! A46   A(30,20,34)           108.5199         estimate D2E/DX2                !
 ! A47   A(17,21,38)           109.8876         estimate D2E/DX2                !
 ! A48   A(17,21,42)           109.9045         estimate D2E/DX2                !
 ! A49   A(17,21,46)           111.7726         estimate D2E/DX2                !
 ! A50   A(38,21,42)           110.025          estimate D2E/DX2                !
 ! A51   A(38,21,46)           107.5778         estimate D2E/DX2                !
 ! A52   A(42,21,46)           107.6182         estimate D2E/DX2                !
 ! A53   A(12,22,23)           108.1169         estimate D2E/DX2                !
 ! A54   A(1,24,7)             107.8083         estimate D2E/DX2                !
 ! A55   A(1,24,25)            122.1239         estimate D2E/DX2                !
 ! A56   A(7,24,25)            130.0545         estimate D2E/DX2                !
 ! A57   A(20,26,27)           111.0079         estimate D2E/DX2                !
 ! A58   A(20,26,28)           110.4156         estimate D2E/DX2                !
 ! A59   A(20,26,29)           110.8186         estimate D2E/DX2                !
 ! A60   A(27,26,28)           108.1713         estimate D2E/DX2                !
 ! A61   A(27,26,29)           108.1019         estimate D2E/DX2                !
 ! A62   A(28,26,29)           108.2231         estimate D2E/DX2                !
 ! A63   A(20,30,31)           110.9249         estimate D2E/DX2                !
 ! A64   A(20,30,32)           110.1259         estimate D2E/DX2                !
 ! A65   A(20,30,33)           111.3593         estimate D2E/DX2                !
 ! A66   A(31,30,32)           108.2142         estimate D2E/DX2                !
 ! A67   A(31,30,33)           108.1405         estimate D2E/DX2                !
 ! A68   A(32,30,33)           107.9633         estimate D2E/DX2                !
 ! A69   A(20,34,35)           111.6532         estimate D2E/DX2                !
 ! A70   A(20,34,36)           111.6288         estimate D2E/DX2                !
 ! A71   A(20,34,37)           109.4679         estimate D2E/DX2                !
 ! A72   A(35,34,36)           108.3057         estimate D2E/DX2                !
 ! A73   A(35,34,37)           107.851          estimate D2E/DX2                !
 ! A74   A(36,34,37)           107.7857         estimate D2E/DX2                !
 ! A75   A(21,38,39)           109.8038         estimate D2E/DX2                !
 ! A76   A(21,38,40)           111.436          estimate D2E/DX2                !
 ! A77   A(21,38,41)           110.4168         estimate D2E/DX2                !
 ! A78   A(39,38,40)           108.5887         estimate D2E/DX2                !
 ! A79   A(39,38,41)           108.0436         estimate D2E/DX2                !
 ! A80   A(40,38,41)           108.4643         estimate D2E/DX2                !
 ! A81   A(21,42,43)           111.3732         estimate D2E/DX2                !
 ! A82   A(21,42,44)           109.9071         estimate D2E/DX2                !
 ! A83   A(21,42,45)           110.3481         estimate D2E/DX2                !
 ! A84   A(43,42,44)           108.601          estimate D2E/DX2                !
 ! A85   A(43,42,45)           108.3715         estimate D2E/DX2                !
 ! A86   A(44,42,45)           108.1565         estimate D2E/DX2                !
 ! A87   A(21,46,47)           111.8103         estimate D2E/DX2                !
 ! A88   A(21,46,48)           111.8262         estimate D2E/DX2                !
 ! A89   A(21,46,49)           108.9907         estimate D2E/DX2                !
 ! A90   A(47,46,48)           108.2325         estimate D2E/DX2                !
 ! A91   A(47,46,49)           107.9102         estimate D2E/DX2                !
 ! A92   A(48,46,49)           107.9226         estimate D2E/DX2                !
 ! D1    D(6,1,2,3)              0.2438         estimate D2E/DX2                !
 ! D2    D(6,1,2,11)           179.9405         estimate D2E/DX2                !
 ! D3    D(24,1,2,3)          -179.6885         estimate D2E/DX2                !
 ! D4    D(24,1,2,11)            0.0082         estimate D2E/DX2                !
 ! D5    D(2,1,6,5)              0.0379         estimate D2E/DX2                !
 ! D6    D(2,1,6,50)          -179.9621         estimate D2E/DX2                !
 ! D7    D(24,1,6,5)           179.9512         estimate D2E/DX2                !
 ! D8    D(24,1,6,50)           -0.0488         estimate D2E/DX2                !
 ! D9    D(2,1,24,7)             0.0559         estimate D2E/DX2                !
 ! D10   D(2,1,24,25)          178.8517         estimate D2E/DX2                !
 ! D11   D(6,1,24,7)          -179.8685         estimate D2E/DX2                !
 ! D12   D(6,1,24,25)           -1.0727         estimate D2E/DX2                !
 ! D13   D(1,2,3,4)             -0.2517         estimate D2E/DX2                !
 ! D14   D(1,2,3,8)            179.6311         estimate D2E/DX2                !
 ! D15   D(11,2,3,4)          -179.8701         estimate D2E/DX2                !
 ! D16   D(11,2,3,8)             0.0127         estimate D2E/DX2                !
 ! D17   D(1,2,11,7)            -0.0703         estimate D2E/DX2                !
 ! D18   D(3,2,11,7)           179.5804         estimate D2E/DX2                !
 ! D19   D(2,3,4,5)             -0.0101         estimate D2E/DX2                !
 ! D20   D(2,3,4,9)           -179.8914         estimate D2E/DX2                !
 ! D21   D(8,3,4,5)           -179.8921         estimate D2E/DX2                !
 ! D22   D(8,3,4,9)              0.2265         estimate D2E/DX2                !
 ! D23   D(3,4,5,6)              0.3026         estimate D2E/DX2                !
 ! D24   D(3,4,5,10)          -179.8059         estimate D2E/DX2                !
 ! D25   D(9,4,5,6)           -179.8158         estimate D2E/DX2                !
 ! D26   D(9,4,5,10)             0.0758         estimate D2E/DX2                !
 ! D27   D(4,5,6,1)             -0.306          estimate D2E/DX2                !
 ! D28   D(4,5,6,50)           179.694          estimate D2E/DX2                !
 ! D29   D(10,5,6,1)           179.8014         estimate D2E/DX2                !
 ! D30   D(10,5,6,50)           -0.1986         estimate D2E/DX2                !
 ! D31   D(13,7,11,2)         -179.2549         estimate D2E/DX2                !
 ! D32   D(24,7,11,2)            0.1079         estimate D2E/DX2                !
 ! D33   D(11,7,13,12)           0.9293         estimate D2E/DX2                !
 ! D34   D(11,7,13,14)         179.9279         estimate D2E/DX2                !
 ! D35   D(24,7,13,12)        -178.3471         estimate D2E/DX2                !
 ! D36   D(24,7,13,14)           0.6515         estimate D2E/DX2                !
 ! D37   D(11,7,24,1)           -0.105          estimate D2E/DX2                !
 ! D38   D(11,7,24,25)        -178.7727         estimate D2E/DX2                !
 ! D39   D(13,7,24,1)          179.2517         estimate D2E/DX2                !
 ! D40   D(13,7,24,25)           0.584          estimate D2E/DX2                !
 ! D41   D(17,12,13,7)         179.0558         estimate D2E/DX2                !
 ! D42   D(17,12,13,14)          0.0489         estimate D2E/DX2                !
 ! D43   D(22,12,13,7)          -0.7867         estimate D2E/DX2                !
 ! D44   D(22,12,13,14)       -179.7936         estimate D2E/DX2                !
 ! D45   D(13,12,17,16)         -0.1531         estimate D2E/DX2                !
 ! D46   D(13,12,17,21)        179.9458         estimate D2E/DX2                !
 ! D47   D(22,12,17,16)        179.6912         estimate D2E/DX2                !
 ! D48   D(22,12,17,21)         -0.2098         estimate D2E/DX2                !
 ! D49   D(13,12,22,23)          0.0849         estimate D2E/DX2                !
 ! D50   D(17,12,22,23)       -179.7581         estimate D2E/DX2                !
 ! D51   D(7,13,14,15)        -178.9292         estimate D2E/DX2                !
 ! D52   D(7,13,14,18)           1.0221         estimate D2E/DX2                !
 ! D53   D(12,13,14,15)          0.0648         estimate D2E/DX2                !
 ! D54   D(12,13,14,18)       -179.9839         estimate D2E/DX2                !
 ! D55   D(13,14,15,16)         -0.0661         estimate D2E/DX2                !
 ! D56   D(13,14,15,20)        178.681          estimate D2E/DX2                !
 ! D57   D(18,14,15,16)        179.9828         estimate D2E/DX2                !
 ! D58   D(18,14,15,20)         -1.2702         estimate D2E/DX2                !
 ! D59   D(14,15,16,17)         -0.0479         estimate D2E/DX2                !
 ! D60   D(14,15,16,19)        179.9813         estimate D2E/DX2                !
 ! D61   D(20,15,16,17)       -178.755          estimate D2E/DX2                !
 ! D62   D(20,15,16,19)          1.2742         estimate D2E/DX2                !
 ! D63   D(14,15,20,26)        -61.714          estimate D2E/DX2                !
 ! D64   D(14,15,20,30)         57.3684         estimate D2E/DX2                !
 ! D65   D(14,15,20,34)        178.069          estimate D2E/DX2                !
 ! D66   D(16,15,20,26)        116.9611         estimate D2E/DX2                !
 ! D67   D(16,15,20,30)       -123.9565         estimate D2E/DX2                !
 ! D68   D(16,15,20,34)         -3.2559         estimate D2E/DX2                !
 ! D69   D(15,16,17,12)          0.1569         estimate D2E/DX2                !
 ! D70   D(15,16,17,21)       -179.9419         estimate D2E/DX2                !
 ! D71   D(19,16,17,12)       -179.8722         estimate D2E/DX2                !
 ! D72   D(19,16,17,21)          0.0289         estimate D2E/DX2                !
 ! D73   D(12,17,21,38)         61.037          estimate D2E/DX2                !
 ! D74   D(12,17,21,42)        -60.1791         estimate D2E/DX2                !
 ! D75   D(12,17,21,46)       -179.602          estimate D2E/DX2                !
 ! D76   D(16,17,21,38)       -118.8605         estimate D2E/DX2                !
 ! D77   D(16,17,21,42)        119.9235         estimate D2E/DX2                !
 ! D78   D(16,17,21,46)          0.5005         estimate D2E/DX2                !
 ! D79   D(15,20,26,27)         58.4954         estimate D2E/DX2                !
 ! D80   D(15,20,26,28)        178.4551         estimate D2E/DX2                !
 ! D81   D(15,20,26,29)        -61.6435         estimate D2E/DX2                !
 ! D82   D(30,20,26,27)        -60.996          estimate D2E/DX2                !
 ! D83   D(30,20,26,28)         58.9637         estimate D2E/DX2                !
 ! D84   D(30,20,26,29)        178.8652         estimate D2E/DX2                !
 ! D85   D(34,20,26,27)       -179.0416         estimate D2E/DX2                !
 ! D86   D(34,20,26,28)        -59.0819         estimate D2E/DX2                !
 ! D87   D(34,20,26,29)         60.8196         estimate D2E/DX2                !
 ! D88   D(15,20,30,31)         61.8079         estimate D2E/DX2                !
 ! D89   D(15,20,30,32)       -178.4219         estimate D2E/DX2                !
 ! D90   D(15,20,30,33)        -58.686          estimate D2E/DX2                !
 ! D91   D(26,20,30,31)       -179.2362         estimate D2E/DX2                !
 ! D92   D(26,20,30,32)        -59.466          estimate D2E/DX2                !
 ! D93   D(26,20,30,33)         60.2699         estimate D2E/DX2                !
 ! D94   D(34,20,30,31)        -61.14           estimate D2E/DX2                !
 ! D95   D(34,20,30,32)         58.6302         estimate D2E/DX2                !
 ! D96   D(34,20,30,33)        178.3661         estimate D2E/DX2                !
 ! D97   D(15,20,34,35)        -60.7885         estimate D2E/DX2                !
 ! D98   D(15,20,34,36)         60.6072         estimate D2E/DX2                !
 ! D99   D(15,20,34,37)        179.861          estimate D2E/DX2                !
 ! D100  D(26,20,34,35)        178.8923         estimate D2E/DX2                !
 ! D101  D(26,20,34,36)        -59.712          estimate D2E/DX2                !
 ! D102  D(26,20,34,37)         59.5418         estimate D2E/DX2                !
 ! D103  D(30,20,34,35)         60.5543         estimate D2E/DX2                !
 ! D104  D(30,20,34,36)       -178.0501         estimate D2E/DX2                !
 ! D105  D(30,20,34,37)        -58.7962         estimate D2E/DX2                !
 ! D106  D(17,21,38,39)       -179.376          estimate D2E/DX2                !
 ! D107  D(17,21,38,40)        -59.02           estimate D2E/DX2                !
 ! D108  D(17,21,38,41)         61.5907         estimate D2E/DX2                !
 ! D109  D(42,21,38,39)        -58.2323         estimate D2E/DX2                !
 ! D110  D(42,21,38,40)         62.1237         estimate D2E/DX2                !
 ! D111  D(42,21,38,41)       -177.2656         estimate D2E/DX2                !
 ! D112  D(46,21,38,39)         58.7289         estimate D2E/DX2                !
 ! D113  D(46,21,38,40)        179.0848         estimate D2E/DX2                !
 ! D114  D(46,21,38,41)        -60.3044         estimate D2E/DX2                !
 ! D115  D(17,21,42,43)         61.6293         estimate D2E/DX2                !
 ! D116  D(17,21,42,44)       -177.9712         estimate D2E/DX2                !
 ! D117  D(17,21,42,45)        -58.7765         estimate D2E/DX2                !
 ! D118  D(38,21,42,43)        -59.5042         estimate D2E/DX2                !
 ! D119  D(38,21,42,44)         60.8953         estimate D2E/DX2                !
 ! D120  D(38,21,42,45)       -179.91           estimate D2E/DX2                !
 ! D121  D(46,21,42,43)       -176.4401         estimate D2E/DX2                !
 ! D122  D(46,21,42,44)        -56.0406         estimate D2E/DX2                !
 ! D123  D(46,21,42,45)         63.1541         estimate D2E/DX2                !
 ! D124  D(17,21,46,47)        -60.6327         estimate D2E/DX2                !
 ! D125  D(17,21,46,48)         60.9206         estimate D2E/DX2                !
 ! D126  D(17,21,46,49)       -179.8434         estimate D2E/DX2                !
 ! D127  D(38,21,46,47)         60.0831         estimate D2E/DX2                !
 ! D128  D(38,21,46,48)       -178.3636         estimate D2E/DX2                !
 ! D129  D(38,21,46,49)        -59.1276         estimate D2E/DX2                !
 ! D130  D(42,21,46,47)        178.6042         estimate D2E/DX2                !
 ! D131  D(42,21,46,48)        -59.8425         estimate D2E/DX2                !
 ! D132  D(42,21,46,49)         59.3935         estimate D2E/DX2                !
 --------------------------------------------------------------------------------
 Trust Radius=3.00D-01 FncErr=5.00D-06 GrdErr=5.00D-06 EigMax=2.50D+02 EigMin=1.00D-04
 Number of steps in this run=    286 maximum allowed number of steps=    300.
 GradGradGradGradGradGradGradGradGradGradGradGradGradGradGradGradGradGrad

 Leave Link  103 at Wed Mar  6 12:03:12 2019, MaxMem=  1342177280 cpu:               1.9 elap:               0.3
 (Enter /gpfs/apps/hpc/Apps/Restricted/Gaussian/g16/Rev_B.01-AVX/g16/l202.exe)
                          Input orientation:                          
 ---------------------------------------------------------------------
 Center     Atomic      Atomic             Coordinates (Angstroms)
 Number     Number       Type             X           Y           Z
 ---------------------------------------------------------------------
      1          6           0       -0.483053    2.715584    0.416145
      2          6           0       -1.881052    2.898359    0.327601
      3          6           0       -2.412894    4.190122    0.243421
      4          6           0       -1.520456    5.261988    0.256277
      5          6           0       -0.133595    5.064531    0.350314
      6          6           0        0.427051    3.782688    0.429804
      7          6           0       -1.518543    0.752015    0.424651
      8          1           0       -3.482079    4.346339    0.169021
      9          1           0       -1.905266    6.273153    0.194132
     10          1           0        0.529539    5.922761    0.360617
     11          7           0       -2.496427    1.656282    0.336302
     12          6           0       -3.063668   -1.189037    0.352314
     13          6           0       -1.739219   -0.685003    0.447265
     14          6           0       -0.658724   -1.573623    0.540497
     15          6           0       -0.848757   -2.950289    0.541355
     16          6           0       -2.167874   -3.417641    0.446447
     17          6           0       -3.286126   -2.585001    0.353326
     18          1           0        0.347044   -1.175374    0.612680
     19          1           0       -2.332312   -4.483825    0.445491
     20          6           0        0.361420   -3.887798    0.614442
     21          6           0       -4.705200   -3.167413    0.253385
     22          8           0       -4.117255   -0.346876    0.257497
     23          1           0       -3.767809    0.591511    0.268641
     24          7           0       -0.287014    1.356600    0.476439
     25          1           0        0.638260    0.947632    0.528152
     26          6           0        1.245777   -3.654521   -0.627285
     27          1           0        1.575562   -2.614306   -0.683508
     28          1           0        2.133816   -4.292376   -0.588643
     29          1           0        0.697384   -3.887082   -1.544179
     30          6           0        1.182786   -3.575549    1.880731
     31          1           0        0.588653   -3.743887    2.782861
     32          1           0        2.064321   -4.221634    1.926387
     33          1           0        1.524899   -2.537627    1.887374
     34          6           0       -0.049460   -5.366088    0.652100
     35          1           0       -0.664682   -5.591665    1.527396
     36          1           0       -0.608161   -5.652070   -0.243331
     37          1           0        0.845240   -5.991639    0.701283
     38          6           0       -5.359002   -2.732161   -1.075251
     39          1           0       -6.372934   -3.138229   -1.139958
     40          1           0       -5.413698   -1.647265   -1.155355
     41          1           0       -4.786354   -3.113816   -1.925275
     42          6           0       -5.557474   -2.682549    1.445687
     43          1           0       -5.658132   -1.598206    1.446625
     44          1           0       -6.556546   -3.125767    1.394151
     45          1           0       -5.097957   -2.986879    2.390277
     46          6           0       -4.694231   -4.704659    0.283816
     47          1           0       -4.126052   -5.123400   -0.551056
     48          1           0       -4.268835   -5.089758    1.214382
     49          1           0       -5.721459   -5.069139    0.207540
     50          1           0        1.483643    3.627668    0.496750
 ---------------------------------------------------------------------
                    Distance matrix (angstroms):
                    1          2          3          4          5
     1  C    0.000000
     2  C    1.412674   0.000000
     3  C    2.434827   1.399498   0.000000
     4  C    2.754258   2.392041   1.394815   0.000000
     5  C    2.375712   2.783240   2.443608   1.404000   0.000000
     6  C    1.402564   2.473828   2.875070   2.451780   1.401344
     7  C    2.219891   2.178904   3.557146   4.513115   4.530055
     8  H    3.422658   2.164505   1.083095   2.166562   3.429433
     9  H    3.837744   3.377519   2.144559   1.083695   2.150344
    10  H    3.363690   3.867693   3.416677   2.156383   1.084625
    11  N    2.276438   1.386188   2.536917   3.736314   4.147208
    12  C    4.680781   4.255114   5.419476   6.633736   6.905972
    13  C    3.625316   3.588164   4.925671   5.954077   5.970307
    14  C    4.294604   4.640909   6.032091   6.895574   6.661608
    15  C    5.679043   5.942896   7.315788   8.244631   8.048931
    16  C    6.360502   6.323626   7.614415   8.705818   8.723232
    17  C    5.996446   5.660577   6.832050   8.043771   8.273681
    18  H    3.983371   4.651987   6.045011   6.712243   6.263886
    19  H    7.433176   7.396903   8.676675   9.781400   9.798700
    20  C    6.660113   7.152824   8.549109   9.348172   8.969894
    21  C    7.243112   6.691406   7.706367   9.010960   9.416680
    22  O    4.755129   3.941709   4.846586   6.180835   6.720230
    23  H    3.914469   2.980751   3.845313   5.183059   5.763861
    24  N    1.374374   2.222640   3.550001   4.101452   3.713246
    25  H    2.096555   3.192568   4.461430   4.831939   4.192403
    26  C    6.682502   7.323189   8.699565   9.377466   8.881455
    27  H    5.818493   6.584831   7.941487   8.514959   7.934390
    28  H    7.547788   8.286455   9.660107  10.264184   9.673391
    29  H    6.987954   7.496273   8.838018   9.584672   9.187546
    30  C    6.670711   7.328765   8.712941   9.383412   8.872768
    31  H    6.962375   7.499812   8.854747   9.588418   9.166633
    32  H    7.542873   8.295564   9.676542  10.275163   9.672006
    33  H    5.813141   6.601768   7.966894   8.530455   7.931328
    34  C    8.096734   8.471193   9.852613  10.736690  10.435323
    35  H    8.383213   8.660229  10.019391  10.961290  10.734155
    36  H    8.394534   8.663490  10.018120  10.963510  10.743517
    37  H    8.812570   9.306147  10.700156  11.508200  11.104963
    38  C    7.461707   6.765123   7.637830   8.967375   9.493446
    39  H    8.448626   7.666233   8.443955   9.801003  10.413238
    40  H    6.768702   5.944867   6.710923   8.055297   8.671490
    41  H    7.614627   7.047161   7.980230   9.250911   9.680487
    42  C    7.479943   6.775893   7.652936   8.990433   9.520271
    43  H    6.815579   5.978097   6.744183   8.099355   8.724361
    44  H    8.483230   7.699861   8.486240   9.849436  10.460635
    45  H    7.596882   7.017060   7.957883   9.241011   9.676339
    46  C    8.532968   8.106897   9.182770  10.459812  10.781507
    47  H    8.698080   8.376197   9.503041  10.737653  10.979350
    48  H    8.711641   8.384384   9.513330  10.753148  10.998018
    49  H    9.385432   8.845573   9.832691  11.152712  11.573067
    50  H    2.169398   3.446981   3.945064   3.428329   2.168289
                    6          7          8          9         10
     6  C    0.000000
     7  C    3.601436   0.000000
     8  H    3.958157   4.103655   0.000000
     9  H    3.420184   5.539464   2.489896   0.000000
    10  H    2.143642   5.561956   4.314498   2.465516   0.000000
    11  N    3.616223   1.334826   2.869826   4.656735   5.230670
    12  C    6.075292   2.482001   5.554192   7.553224   7.967991
    13  C    4.965208   1.454039   5.331921   6.964739   6.986939
    14  C    5.466372   2.482197   6.569268   7.952718   7.592108
    15  C    6.853693   3.764211   7.766196   9.290245   8.981280
    16  C    7.653669   4.219969   7.879307   9.697634   9.722475
    17  C    7.371635   3.776918   6.936558   8.966549   9.324235
    18  H    4.962079   2.688977   6.734117   7.792858   7.104953
    19  H    8.714905   5.298743   8.908995  10.768385  10.793258
    20  C    7.672989   5.009805   9.097906  10.419187   9.815282
    21  C    8.641471   5.054308   7.613121   9.847204  10.490246
    22  O    6.142777   2.826448   4.736828   6.980093   7.804593
    23  H    5.273181   2.260376   3.767001   5.979605   6.848203
    24  N    2.529420   1.372905   4.386512   5.183718   4.640043
    25  H    2.844613   2.168128   5.353259   5.911199   4.979136
    26  C    7.556443   5.307127   9.327405  10.448086   9.654702
    27  H    6.593942   4.704638   8.646220   9.585058   8.664056
    28  H    8.316065   6.309705  10.331492  11.338312  10.383825
    29  H    7.924333   5.505256   9.391070  10.631363   9.994470
    30  C    7.537903   5.305201   9.351322  10.458375   9.641337
    31  H    7.887479   5.496778   9.426281  10.642473   9.965683
    32  H    8.305997   6.311047  10.356691  11.353364  10.378629
    33  H    6.578462   4.714217   8.683983   9.605360   8.654472
    34  C    9.163874   6.296120  10.312491  11.795155  11.307445
    35  H    9.501320   6.495183  10.418581  12.003772  11.634842
    36  H    9.515221   6.502869  10.411418  12.003533  11.646280
    37  H    9.787035   7.151284  11.219750  12.579651  11.923449
    38  C    8.842333   5.397992   7.428069   9.728068  10.566187
    39  H    9.828685   6.414601   8.129528  10.503045  11.489012
    40  H    8.130896   4.839958   6.434937   8.767168   9.742973
    41  H    8.960344   5.580806   7.857552  10.045285  10.730505
    42  C    8.868249   5.399232   7.439248   9.752416  10.596248
    43  H    8.186415   4.868693   6.457948   8.809713   9.799573
    44  H    9.870529   6.431065   8.172249  10.555290  11.539352
    45  H    8.955233   5.536715   7.830781  10.038153  10.731725
    46  C    9.913824   6.315071   9.132527  11.326903  11.842117
    47  H   10.050435   6.501662   9.518885  11.634802  12.021786
    48  H   10.069121   6.504928   9.526368  11.650885  12.042794
    49  H   10.780001   7.183138   9.678199  11.967084  12.645959
    50  H    1.070000   4.157848   5.028150   4.309858   2.489237
                   11         12         13         14         15
    11  N    0.000000
    12  C    2.901355   0.000000
    13  C    2.463187   1.420293   0.000000
    14  C    3.721711   2.442760   1.402072   0.000000
    15  C    4.896668   2.836120   2.435836   1.389720   0.000000
    16  C    5.085742   2.403744   2.766054   2.384697   1.402674
    17  C    4.314209   1.413578   2.451885   2.821553   2.471752
    18  H    4.022436   3.420663   2.149493   1.084150   2.141343
    19  H    6.143270   3.376269   3.844842   3.358452   2.135851
    20  C    6.243515   4.368438   3.833866   2.530132   1.532577
    21  C    5.305995   2.572622   3.872595   4.358505   3.873270
    22  O    2.577971   1.352136   2.409439   3.680548   4.188247
    23  H    1.659737   1.916551   2.403450   3.798437   4.597780
    24  N    2.234044   3.769016   2.505572   2.954400   4.343853
    25  H    3.219511   4.277914   2.885212   2.835321   4.171952
    26  C    6.567893   5.060587   4.345445   3.053027   2.499747
    27  H    5.988241   4.962537   3.998579   2.751953   2.736877
    28  H    7.594814   6.126170   5.393204   4.057691   3.460323
    29  H    6.668247   5.002164   4.489565   3.396615   2.759997
    30  C    6.579812   5.105279   4.352952   3.032341   2.512378
    31  H    6.683202   5.076836   4.497863   3.360683   2.778542
    32  H    7.607804   6.162031   5.400229   4.043220   3.467082
    33  H    6.013797   5.022952   4.020024   2.740728   2.759764
    34  C    7.443189   5.159755   4.980944   3.842714   2.547003
    35  H    7.570121   5.149668   5.137767   4.137471   2.825425
    36  H    7.570570   5.128642   5.140814   4.153393   2.823692
    37  H    8.354080   6.202123   5.907989   4.669756   3.484970
    38  C    5.426348   3.112512   4.428514   5.103476   4.796176
    39  H    6.339873   4.120372   5.478039   6.158256   5.777427
    40  H    4.652841   2.829431   4.122637   5.048873   5.041367
    41  H    5.754332   3.443811   4.562139   5.048718   4.649266
    42  C    5.424592   3.105658   4.423359   5.103610   4.802241
    43  H    4.671283   2.845379   4.146148   5.080920   5.077177
    44  H    6.361730   4.127535   5.482751   6.158099   5.773812
    45  H    5.704885   3.394681   4.511657   5.012561   4.634172
    46  C    6.730131   3.875955   4.991638   5.114156   4.234597
    47  H    7.029023   4.174200   5.137410   5.080824   4.081230
    48  H    7.030043   4.172675   5.137051   5.084312   4.089893
    49  H    7.459806   4.705317   5.927592   6.161232   5.323925
    50  H    4.444442   6.625673   5.384090   5.625396   6.979370
                   16         17         18         19         20
    16  C    0.000000
    17  C    1.397300   0.000000
    18  H    3.373456   3.905667   0.000000
    19  H    1.078791   2.126920   4.260604   0.000000
    20  C    2.578100   3.882017   2.712463   2.764052   0.000000
    21  C    2.556934   1.537193   5.442654   2.720375   5.130298
    22  O    3.642168   2.389385   4.554397   4.509513   5.720495
    23  H    4.320267   3.213941   4.491354   5.277401   6.101993
    24  N    5.131463   4.954397   2.613711   6.188276   5.286135
    25  H    5.190055   5.283073   2.144553   6.191273   4.844117
    26  C    3.586367   4.758531   2.914001   3.826397   1.542203
    27  H    3.991924   4.971106   2.293444   4.476742   2.186458
    28  H    4.510112   5.760053   3.788328   4.588288   2.180019
    29  H    3.520322   4.600467   3.482548   3.673411   2.184609
    30  C    3.648154   4.825487   2.840292   3.903946   1.541308
    31  H    3.628182   4.718005   3.371249   3.813508   2.185037
    32  H    4.555008   5.812088   3.735581   4.646739   2.175435
    33  H    4.060452   5.049902   2.206336   4.554645   2.190206
    34  C    2.885553   4.277817   4.209614   2.456112   1.534790
    35  H    2.855594   4.158177   4.622112   2.275702   2.188500
    36  H    2.810902   4.115144   4.656821   2.193620   2.188268
    37  H    3.971053   5.366045   4.842774   3.526439   2.160502
    38  C    3.601214   2.521766   6.150744   3.813376   6.075672
    39  H    4.503030   3.473376   7.216831   4.544326   6.999378
    40  H    4.029314   2.771647   6.044400   4.483717   6.442372
    41  H    3.545957   2.778912   6.045705   3.676925   5.792132
    42  C    3.609464   2.522259   6.150513   3.827095   6.097286
    43  H    4.061108   2.792039   6.077532   4.515545   6.493825
    44  H    4.499308   3.474391   7.216251   4.537448   7.003349
    45  H    3.542516   2.755614   6.007448   3.697544   5.811200
    46  C    2.839955   2.545691   6.162666   2.377723   5.131879
    47  H    2.781921   2.822561   6.078633   2.149341   4.798177
    48  H    2.792801   2.825056   6.082005   2.169901   4.821193
    49  H    3.925874   3.481816   7.221653   3.447540   6.209875
    50  H    7.935521   7.833807   4.937055   8.964400   7.599702
                   21         22         23         24         25
    21  C    0.000000
    22  O    2.881167   0.000000
    23  H    3.874073   1.001402   0.000000
    24  N    6.327465   4.197679   3.569940   0.000000
    25  H    6.749938   4.935983   4.428048   1.012947   0.000000
    26  C    6.035477   6.362819   6.630801   5.355277   4.783714
    27  H    6.374297   6.199588   6.303607   4.536823   3.877378
    28  H    6.981883   7.440350   7.708208   6.237447   5.562518
    29  H    5.739083   6.241782   6.578910   5.705097   5.260467
    30  C    6.122353   6.414799   6.668704   5.334645   4.752383
    31  H    5.895375   6.329512   6.640462   5.665805   5.205432
    32  H    7.052427   7.484038   7.741332   6.224775   5.541662
    33  H    6.471529   6.268157   6.358031   4.520926   3.844560
    34  C    5.164210   6.472647   7.033217   6.729177   6.352274
    35  H    4.881177   6.406303   7.031751   7.037438   6.742296
    36  H    4.817258   6.380412   7.016252   7.052848   6.760534
    37  H    6.243737   7.529054   8.050172   7.438358   6.944516
    38  C    1.543430   3.001289   3.922338   6.697072   7.216573
    39  H    2.173383   3.851314   4.762540   7.736579   8.284545
    40  H    2.190289   2.316879   3.122312   6.161887   6.796608
    41  H    2.180830   3.587220   4.424946   6.782102   7.207017
    42  C    1.543712   2.990216   3.912519   6.710582   7.239282
    43  H    2.189592   2.313905   3.123432   6.206533   6.853425
    44  H    2.174986   3.868379   4.781421   7.761497   8.313108
    45  H    2.180174   3.532725   4.367552   6.758236   7.200838
    46  C    1.537586   4.395892   5.376607   7.496634   7.774545
    47  H    2.192812   4.844483   5.784501   7.601602   7.792354
    48  H    2.193021   4.840820   5.781200   7.612817   7.810286
    49  H    2.156721   4.987558   5.988609   8.419954   8.760728
    50  H    9.194245   6.871994   6.070258   2.879825   2.810383
                   26         27         28         29         30
    26  C    0.000000
    27  H    1.092688   0.000000
    28  H    1.094059   1.771035   0.000000
    29  H    1.093396   1.769720   1.772188   0.000000
    30  C    2.510050   2.766511   2.741552   3.473136   0.000000
    31  H    3.474031   3.776990   3.749054   4.330774   1.093238
    32  H    2.740962   3.103859   2.516984   3.745033   1.093899
    33  H    2.765659   2.572524   3.095252   3.779069   1.092871
    34  C    2.498785   3.463647   2.731116   2.751159   2.496797
    35  H    3.470595   4.332604   3.741305   3.767678   2.757301
    36  H    2.752219   3.767016   3.080007   2.551830   3.468583
    37  H    2.718022   3.722552   2.492355   3.081091   2.709710
    38  C    6.683901   6.946620   7.668988   6.183328   7.228010
    39  H    7.653375   7.978811   8.602372   7.121346   8.148909
    40  H    6.975424   7.071603   8.017652   6.520221   7.513301
    41  H    6.193847   6.501190   7.145932   5.551086   7.094330
    42  C    7.178173   7.444349   8.117018   7.036579   6.813062
    43  H    7.496232   7.608959   8.492074   7.387587   7.134178
    44  H    8.077254   8.408891   8.989707   7.863389   7.767646
    45  H    7.056514   7.356821   7.929491   7.062315   6.328815
    46  C    6.100540   6.679491   6.895896   5.751479   6.193897
    47  H    5.569557   6.230690   6.314900   5.077431   6.040959
    48  H    5.988538   6.624713   6.699303   5.806842   5.697106
    49  H    7.158244   7.750270   7.933638   6.757760   7.259406
    50  H    7.372266   6.353243   8.020468   7.826561   7.341134
                   31         32         33         34         35
    31  H    0.000000
    32  H    1.771831   0.000000
    33  H    1.770174   1.768722   0.000000
    34  C    2.752974   2.720598   3.464780   0.000000
    35  H    2.561508   3.079551   3.775049   1.093401   0.000000
    36  H    3.772448   3.727732   4.334698   1.093494   1.772658
    37  H    3.074279   2.473854   3.714693   1.092804   1.767005
    38  C    7.161230   8.144574   7.496872   6.173536   6.081708
    39  H    8.013677   9.042318   8.479459   6.939824   6.761528
    40  H    7.478876   8.487949   7.628569   6.772857   6.731166
    41  H    7.173161   7.936895   7.395958   5.844121   5.920207
    42  C    6.378820   7.790482   7.097612   6.178137   5.692894
    43  H    6.738828   8.169995   7.257596   6.803338   6.394434
    44  H    7.305098   8.706523   8.117816   6.921838   6.388464
    45  H    5.750193   7.282722   6.657098   5.845444   5.213770
    46  C    5.922598   6.972043   6.778274   4.706062   4.309354
    47  H    5.936876   6.728419   6.675733   4.257356   4.064519
    48  H    5.278890   6.431909   6.366604   4.265635   3.652370
    49  H    6.943060   8.018171   7.857487   5.697138   5.252242
    50  H    7.769629   7.999537   6.320316   9.124812   9.522270
                   36         37         38         39         40
    36  H    0.000000
    37  H    1.766346   0.000000
    38  C    5.638125   7.229999   0.000000
    39  H    6.352633   7.977102   1.094137   0.000000
    40  H    6.321664   7.841874   1.089223   1.772948   0.000000
    41  H    5.170006   6.848031   1.093676   1.770467   1.771189
    42  C    6.013862   7.245617   2.529225   2.749214   2.803195
    43  H    6.692680   7.883631   2.781221   3.094030   2.613896
    44  H    6.666846   7.967416   2.772541   2.540783   3.161020
    45  H    5.847855   6.870435   3.484668   3.756465   3.803389
    46  C    4.227463   5.702310   2.485907   2.701644   3.454925
    47  H    3.570678   5.199609   2.740980   3.055518   3.755892
    48  H    3.980158   5.218278   3.462535   3.711956   4.333258
    49  H    5.166131   6.649536   2.690426   2.443069   3.696136
    50  H    9.541326   9.642638   9.473141  10.496760   8.838987
                   41         42         43         44         45
    41  H    0.000000
    42  C    3.484825   0.000000
    43  H    3.798260   1.089005   0.000000
    44  H    3.761956   1.094186   1.772948   0.000000
    45  H    4.328649   1.093628   1.769940   1.771733   0.000000
    46  C    2.723849   2.486777   3.454169   2.682156   2.747898
    47  H    2.522480   3.463193   4.331858   3.698874   3.763079
    48  H    3.745613   2.740209   3.764973   3.020463   2.547994
    49  H    3.040824   2.693643   3.686017   2.425306   3.080406
    50  H    9.519804   9.502455   8.900392  10.538447   9.521299
                   46         47         48         49         50
    46  C    0.000000
    47  H    1.093244   0.000000
    48  H    1.093259   1.771522   0.000000
    49  H    1.092639   1.767409   1.767561   0.000000
    50  H   10.374929  10.447381  10.468979  11.297415   0.000000
 Symmetry turned off by external request.
 Stoichiometry    C21H26N2O
 Framework group  C1[X(C21H26N2O)]
 Deg. of freedom   144
 Full point group                 C1      NOp   1
 Rotational constants (GHZ):           0.3502352           0.1442925           0.1070206
 Leave Link  202 at Wed Mar  6 12:03:13 2019, MaxMem=  1342177280 cpu:               4.1 elap:               0.5
 (Enter /gpfs/apps/hpc/Apps/Restricted/Gaussian/g16/Rev_B.01-AVX/g16/l301.exe)
 Standard basis: 6-31G(d,p) (6D, 7F)
 Ernie: Thresh=  0.10000D-02 Tol=  0.10000D-05 Strict=F.
   490 basis functions,   854 primitive gaussians,   490 cartesian basis functions
    87 alpha electrons       87 beta electrons
       nuclear repulsion energy      2035.4261075114 Hartrees.
 IExCor=  402 DFT=T Ex+Corr=B3LYP ExCW=0 ScaHFX=  0.200000
 ScaDFX=  0.800000  0.720000  1.000000  0.810000 ScalE2=  1.000000  1.000000
 IRadAn=      5 IRanWt=     -1 IRanGd=            0 ICorTp=0 IEmpDi=141
 NAtoms=   50 NActive=   50 NUniq=   50 SFac= 1.00D+00 NAtFMM=   60 NAOKFM=F Big=F
 Integral buffers will be    131072 words long.
 Raffenetti 2 integral format.
 Two-electron integral symmetry is turned off.
 R6Disp:  Grimme-D3(BJ) Dispersion energy=       -0.1089225132 Hartrees.
 Nuclear repulsion after empirical dispersion term =     2035.3171849982 Hartrees.
 Using the following non-standard input for PCM:
 radii=bondi
 dis
 rep
 cav
 --- end of non-standard input.
 ------------------------------------------------------------------------------
 Polarizable Continuum Model (PCM)
 =================================
 Model                : C-PCM.
 Atomic radii         : Bondi.
 Polarization charges : Total charges.
 Charge compensation  : None.
 Solution method      : On-the-fly selection.
 Cavity type          : Scaled VdW (van der Waals Surface) (Alpha=1.100).
 Cavity algorithm     : GePol (No added spheres)
                        Default sphere list used, NSphG=   50.
                        Lebedev-Laikov grids with approx.  5.0 points / Ang**2.
                        Smoothing algorithm: York/Karplus (Gamma=1.0000).
                        Polarization charges: spherical gaussians, with
                                              point-specific exponents (IZeta= 3).
                        Self-potential: point-specific (ISelfS= 7).
                        Self-field    : sphere-specific E.n sum rule (ISelfD= 2).
 1st derivatives      : Analytical E(r).r(x)/FMM algorithm (CHGder, D1EAlg=3).
                        Cavity 1st derivative terms included.
 Solvent              : Dichloromethane, Eps=   8.930000 Eps(inf)=   2.028346
 ------------------------------------------------------------------------------
 GePol: Number of generator spheres                  =      50
 GePol: Total number of spheres                      =      50
 GePol: Number of exposed spheres                    =      50 (100.00%)
 GePol: Number of points                             =    3241
 GePol: Average weight of points                     =       0.12
 GePol: Minimum weight of points                     =   0.13D-10
 GePol: Maximum weight of points                     =    0.21770
 GePol: Number of points with low weight             =     223
 GePol: Fraction of low-weight points (<1% of avg)   =       6.88%
 GePol: Cavity surface area                          =    385.222 Ang**2
 GePol: Cavity volume                                =    369.784 Ang**3
 PCM non-electrostatic energy =         0.0162970388 Hartrees.
 Nuclear repulsion after PCM non-electrostatic terms =     2035.3334820370 Hartrees.
 Leave Link  301 at Wed Mar  6 12:03:14 2019, MaxMem=  1342177280 cpu:               4.6 elap:               0.5
 (Enter /gpfs/apps/hpc/Apps/Restricted/Gaussian/g16/Rev_B.01-AVX/g16/l302.exe)
 NPDir=0 NMtPBC=     1 NCelOv=     1 NCel=       1 NClECP=     1 NCelD=      1
         NCelK=      1 NCelE2=     1 NClLst=     1 CellRange=     0.0.
 One-electron integrals computed using PRISM.
 NBasis=   490 RedAO= T EigKep=  2.89D-04  NBF=   490
 NBsUse=   490 1.00D-06 EigRej= -1.00D+00 NBFU=   490
 Precomputing XC quadrature grid using
 IXCGrd= 4 IRadAn=           5 IRanWt=          -1 IRanGd=           0 AccXCQ= 0.00D+00.
 Generated NRdTot=       0 NPtTot=           0 NUsed=           0 NTot=          32
 NSgBfM=   484   484   484   484   484 MxSgAt=    50 MxSgA2=    50.
 Leave Link  302 at Wed Mar  6 12:03:15 2019, MaxMem=  1342177280 cpu:              16.1 elap:               1.3
 (Enter /gpfs/apps/hpc/Apps/Restricted/Gaussian/g16/Rev_B.01-AVX/g16/l303.exe)
 DipDrv:  MaxL=1.
 Leave Link  303 at Wed Mar  6 12:03:16 2019, MaxMem=  1342177280 cpu:               6.7 elap:               0.7
 (Enter /gpfs/apps/hpc/Apps/Restricted/Gaussian/g16/Rev_B.01-AVX/g16/l401.exe)
 ExpMin= 1.61D-01 ExpMax= 5.48D+03 ExpMxC= 8.25D+02 IAcc=3 IRadAn=         5 AccDes= 0.00D+00
 Harris functional with IExCor=  402 and IRadAn=       5 diagonalized for initial guess.
 HarFok:  IExCor=  402 AccDes= 0.00D+00 IRadAn=         5 IDoV= 1 UseB2=F ITyADJ=14
 ICtDFT=  3500011 ScaDFX=  1.000000  1.000000  1.000000  1.000000
 FoFCou: FMM=F IPFlag=           0 FMFlag=      100000 FMFlg1=           0
         NFxFlg=           0 DoJE=T BraDBF=F KetDBF=T FulRan=T
         wScrn=  0.000000 ICntrl=       500 IOpCl=  0 I1Cent=   200000004 NGrid=           0
         NMat0=    1 NMatS0=      1 NMatT0=    0 NMatD0=    1 NMtDS0=    0 NMtDT0=    0
 Symmetry not used in FoFCou.
 Harris En= -1000.86969464728    
 JPrj=0 DoOrth=F DoCkMO=F.
 Leave Link  401 at Wed Mar  6 12:03:20 2019, MaxMem=  1342177280 cpu:              49.0 elap:               3.4
 (Enter /gpfs/apps/hpc/Apps/Restricted/Gaussian/g16/Rev_B.01-AVX/g16/l502.exe)
 Two-electron integral symmetry not used.
 Closed shell SCF:
 Using DIIS extrapolation, IDIIS=  1040.
 NGot=  1342177280 LenX=  1341685074 LenY=  1341444484
 Requested convergence on RMS density matrix=1.00D-08 within 128 cycles.
 Requested convergence on MAX density matrix=1.00D-06.
 Requested convergence on             energy=1.00D-06.
 No special actions if energy rises.
 Fock matrices will be formed incrementally for  20 cycles.

 Cycle   1  Pass 1  IDiag  1:
 FoFJK:  IHMeth= 1 ICntrl=       0 DoSepK=F KAlg= 0 I1Cent=           0 FoldK=F
 IRaf= 670000000 NMat=       1 IRICut=       1 DoRegI=T DoRafI=F ISym2E= 0 IDoP0=0 IntGTp=1.
 FoFCou: FMM=F IPFlag=           0 FMFlag=      100000 FMFlg1=           0
         NFxFlg=           0 DoJE=F BraDBF=F KetDBF=F FulRan=T
         wScrn=  0.000000 ICntrl=         0 IOpCl=  0 I1Cent=           0 NGrid=           0
         NMat0=    1 NMatS0=      1 NMatT0=    0 NMatD0=    1 NMtDS0=    0 NMtDT0=    0
 Symmetry not used in FoFCou.
 Inv3:  Mode=1 IEnd=    31512243.
 Iteration    1 A*A^-1 deviation from unit magnitude is 6.66D-15 for   3230.
 Iteration    1 A*A^-1 deviation from orthogonality  is 2.61D-15 for   3236   1367.
 Iteration    1 A^-1*A deviation from unit magnitude is 6.55D-15 for   3239.
 Iteration    1 A^-1*A deviation from orthogonality  is 2.22D-15 for   3224   2140.
 E= -1000.16142982011    
 DIIS: error= 3.05D-02 at cycle   1 NSaved=   1.
 NSaved= 1 IEnMin= 1 EnMin= -1000.16142982011     IErMin= 1 ErrMin= 3.05D-02
 ErrMax= 3.05D-02  0.00D+00 EMaxC= 1.00D-01 BMatC= 6.24D-01 BMatP= 6.24D-01
 IDIUse=3 WtCom= 6.95D-01 WtEn= 3.05D-01
 Coeff-Com:  0.100D+01
 Coeff-En:   0.100D+01
 Coeff:      0.100D+01
 Gap=     0.172 Goal=   None    Shift=    0.000
 GapD=    0.172 DampG=1.000 DampE=0.500 DampFc=0.5000 IDamp=-1.
 Damping current iteration by 5.00D-01
 RMSDP=3.69D-03 MaxDP=1.33D-01              OVMax= 1.85D-01

 Cycle   2  Pass 1  IDiag  1:
 RMSU=  1.79D-03    CP:  9.69D-01
 E= -1000.46075456324     Delta-E=       -0.299324743133 Rises=F Damp=T
 DIIS: error= 9.49D-03 at cycle   2 NSaved=   2.
 NSaved= 2 IEnMin= 2 EnMin= -1000.46075456324     IErMin= 2 ErrMin= 9.49D-03
 ErrMax= 9.49D-03  0.00D+00 EMaxC= 1.00D-01 BMatC= 3.56D-02 BMatP= 6.24D-01
 IDIUse=3 WtCom= 9.05D-01 WtEn= 9.49D-02
 Coeff-Com:  0.445D-01 0.956D+00
 Coeff-En:   0.786D-01 0.921D+00
 Coeff:      0.477D-01 0.952D+00
 Gap=     0.186 Goal=   None    Shift=    0.000
 RMSDP=1.01D-03 MaxDP=5.07D-02 DE=-2.99D-01 OVMax= 1.64D-01

 Cycle   3  Pass 1  IDiag  1:
 RMSU=  9.80D-04    CP:  9.55D-01  9.32D-01
 E= -1000.79394668391     Delta-E=       -0.333192120670 Rises=F Damp=F
 DIIS: error= 6.16D-03 at cycle   3 NSaved=   3.
 NSaved= 3 IEnMin= 3 EnMin= -1000.79394668391     IErMin= 3 ErrMin= 6.16D-03
 ErrMax= 6.16D-03  0.00D+00 EMaxC= 1.00D-01 BMatC= 2.21D-02 BMatP= 3.56D-02
 IDIUse=3 WtCom= 9.38D-01 WtEn= 6.16D-02
 Coeff-Com: -0.179D-01 0.431D+00 0.587D+00
 Coeff-En:   0.000D+00 0.000D+00 0.100D+01
 Coeff:     -0.168D-01 0.405D+00 0.612D+00
 Gap=     0.161 Goal=   None    Shift=    0.000
 RMSDP=5.14D-04 MaxDP=3.65D-02 DE=-3.33D-01 OVMax= 6.54D-02

 Cycle   4  Pass 1  IDiag  1:
 RMSU=  3.74D-04    CP:  9.57D-01  1.01D+00  6.67D-01
 E= -1000.81090333846     Delta-E=       -0.016956654553 Rises=F Damp=F
 DIIS: error= 4.27D-03 at cycle   4 NSaved=   4.
 NSaved= 4 IEnMin= 4 EnMin= -1000.81090333846     IErMin= 4 ErrMin= 4.27D-03
 ErrMax= 4.27D-03  0.00D+00 EMaxC= 1.00D-01 BMatC= 6.47D-03 BMatP= 2.21D-02
 IDIUse=3 WtCom= 9.57D-01 WtEn= 4.27D-02
 Coeff-Com: -0.121D-01 0.807D-01 0.365D+00 0.567D+00
 Coeff-En:   0.000D+00 0.000D+00 0.244D+00 0.756D+00
 Coeff:     -0.116D-01 0.772D-01 0.359D+00 0.575D+00
 Gap=     0.161 Goal=   None    Shift=    0.000
 RMSDP=1.97D-04 MaxDP=1.39D-02 DE=-1.70D-02 OVMax= 2.46D-02

 Cycle   5  Pass 1  IDiag  1:
 RMSU=  8.78D-05    CP:  9.56D-01  9.85D-01  7.63D-01  6.15D-01
 E= -1000.81733048819     Delta-E=       -0.006427149731 Rises=F Damp=F
 DIIS: error= 9.28D-04 at cycle   5 NSaved=   5.
 NSaved= 5 IEnMin= 5 EnMin= -1000.81733048819     IErMin= 5 ErrMin= 9.28D-04
 ErrMax= 9.28D-04  0.00D+00 EMaxC= 1.00D-01 BMatC= 3.28D-04 BMatP= 6.47D-03
 IDIUse=3 WtCom= 9.91D-01 WtEn= 9.28D-03
 Coeff-Com: -0.473D-02 0.153D-01 0.153D+00 0.301D+00 0.535D+00
 Coeff-En:   0.000D+00 0.000D+00 0.000D+00 0.000D+00 0.100D+01
 Coeff:     -0.468D-02 0.151D-01 0.152D+00 0.299D+00 0.539D+00
 Gap=     0.160 Goal=   None    Shift=    0.000
 RMSDP=4.95D-05 MaxDP=3.97D-03 DE=-6.43D-03 OVMax= 4.05D-03

 Cycle   6  Pass 1  IDiag  1:
 RMSU=  2.75D-05    CP:  9.56D-01  9.87D-01  7.68D-01  6.36D-01  5.46D-01
 E= -1000.81763048650     Delta-E=       -0.000299998309 Rises=F Damp=F
 DIIS: error= 3.14D-04 at cycle   6 NSaved=   6.
 NSaved= 6 IEnMin= 6 EnMin= -1000.81763048650     IErMin= 6 ErrMin= 3.14D-04
 ErrMax= 3.14D-04  0.00D+00 EMaxC= 1.00D-01 BMatC= 2.47D-05 BMatP= 3.28D-04
 IDIUse=3 WtCom= 9.97D-01 WtEn= 3.14D-03
 Coeff-Com: -0.155D-02 0.216D-02 0.519D-01 0.113D+00 0.284D+00 0.550D+00
 Coeff-En:   0.000D+00 0.000D+00 0.000D+00 0.000D+00 0.000D+00 0.100D+01
 Coeff:     -0.155D-02 0.216D-02 0.518D-01 0.112D+00 0.284D+00 0.552D+00
 Gap=     0.160 Goal=   None    Shift=    0.000
 RMSDP=1.30D-05 MaxDP=1.25D-03 DE=-3.00D-04 OVMax= 1.55D-03

 Cycle   7  Pass 1  IDiag  1:
 RMSU=  7.72D-06    CP:  9.56D-01  9.87D-01  7.68D-01  6.39D-01  6.10D-01
                    CP:  6.79D-01
 E= -1000.81765115461     Delta-E=       -0.000020668110 Rises=F Damp=F
 DIIS: error= 1.12D-04 at cycle   7 NSaved=   7.
 NSaved= 7 IEnMin= 7 EnMin= -1000.81765115461     IErMin= 7 ErrMin= 1.12D-04
 ErrMax= 1.12D-04  0.00D+00 EMaxC= 1.00D-01 BMatC= 3.10D-06 BMatP= 2.47D-05
 IDIUse=3 WtCom= 9.99D-01 WtEn= 1.12D-03
 Coeff-Com: -0.491D-03-0.107D-04 0.165D-01 0.384D-01 0.119D+00 0.324D+00
 Coeff-Com:  0.503D+00
 Coeff-En:   0.000D+00 0.000D+00 0.000D+00 0.000D+00 0.000D+00 0.435D-01
 Coeff-En:   0.956D+00
 Coeff:     -0.490D-03-0.107D-04 0.165D-01 0.384D-01 0.119D+00 0.324D+00
 Coeff:      0.503D+00
 Gap=     0.160 Goal=   None    Shift=    0.000
 RMSDP=4.12D-06 MaxDP=3.48D-04 DE=-2.07D-05 OVMax= 4.16D-04

 Cycle   8  Pass 1  IDiag  1:
 RMSU=  2.09D-06    CP:  9.56D-01  9.87D-01  7.69D-01  6.40D-01  6.10D-01
                    CP:  7.11D-01  5.62D-01
 E= -1000.81765390411     Delta-E=       -0.000002749495 Rises=F Damp=F
 DIIS: error= 2.04D-05 at cycle   8 NSaved=   8.
 NSaved= 8 IEnMin= 8 EnMin= -1000.81765390411     IErMin= 8 ErrMin= 2.04D-05
 ErrMax= 2.04D-05  0.00D+00 EMaxC= 1.00D-01 BMatC= 1.17D-07 BMatP= 3.10D-06
 IDIUse=1 WtCom= 1.00D+00 WtEn= 0.00D+00
 Coeff-Com: -0.926D-04-0.151D-03 0.277D-02 0.700D-02 0.273D-01 0.932D-01
 Coeff-Com:  0.216D+00 0.654D+00
 Coeff:     -0.926D-04-0.151D-03 0.277D-02 0.700D-02 0.273D-01 0.932D-01
 Coeff:      0.216D+00 0.654D+00
 Gap=     0.160 Goal=   None    Shift=    0.000
 RMSDP=1.05D-06 MaxDP=7.43D-05 DE=-2.75D-06 OVMax= 1.65D-04

 Cycle   9  Pass 1  IDiag  1:
 RMSU=  7.87D-07    CP:  9.56D-01  9.87D-01  7.69D-01  6.40D-01  6.11D-01
                    CP:  7.15D-01  6.12D-01  7.37D-01
 E= -1000.81765399190     Delta-E=       -0.000000087794 Rises=F Damp=F
 DIIS: error= 7.49D-06 at cycle   9 NSaved=   9.
 NSaved= 9 IEnMin= 9 EnMin= -1000.81765399190     IErMin= 9 ErrMin= 7.49D-06
 ErrMax= 7.49D-06  0.00D+00 EMaxC= 1.00D-01 BMatC= 2.79D-08 BMatP= 1.17D-07
 IDIUse=1 WtCom= 1.00D+00 WtEn= 0.00D+00
 Coeff-Com:  0.155D-04-0.994D-04-0.723D-03-0.137D-02-0.632D-03 0.886D-02
 Coeff-Com:  0.522D-01 0.372D+00 0.569D+00
 Coeff:      0.155D-04-0.994D-04-0.723D-03-0.137D-02-0.632D-03 0.886D-02
 Coeff:      0.522D-01 0.372D+00 0.569D+00
 Gap=     0.160 Goal=   None    Shift=    0.000
 RMSDP=3.92D-07 MaxDP=2.41D-05 DE=-8.78D-08 OVMax= 4.71D-05

 Cycle  10  Pass 1  IDiag  1:
 RMSU=  2.05D-07    CP:  9.56D-01  9.87D-01  7.69D-01  6.40D-01  6.12D-01
                    CP:  7.17D-01  6.15D-01  8.29D-01  6.86D-01
 E= -1000.81765401888     Delta-E=       -0.000000026979 Rises=F Damp=F
 DIIS: error= 1.29D-06 at cycle  10 NSaved=  10.
 NSaved=10 IEnMin=10 EnMin= -1000.81765401888     IErMin=10 ErrMin= 1.29D-06
 ErrMax= 1.29D-06  0.00D+00 EMaxC= 1.00D-01 BMatC= 9.94D-10 BMatP= 2.79D-08
 IDIUse=1 WtCom= 1.00D+00 WtEn= 0.00D+00
 Coeff-Com:  0.108D-04-0.356D-04-0.477D-03-0.101D-02-0.171D-02-0.477D-03
 Coeff-Com:  0.129D-01 0.140D+00 0.257D+00 0.594D+00
 Coeff:      0.108D-04-0.356D-04-0.477D-03-0.101D-02-0.171D-02-0.477D-03
 Coeff:      0.129D-01 0.140D+00 0.257D+00 0.594D+00
 Gap=     0.160 Goal=   None    Shift=    0.000
 RMSDP=9.78D-08 MaxDP=5.20D-06 DE=-2.70D-08 OVMax= 1.19D-05

 Cycle  11  Pass 1  IDiag  1:
 RMSU=  6.95D-08    CP:  9.56D-01  9.87D-01  7.69D-01  6.40D-01  6.12D-01
                    CP:  7.18D-01  6.16D-01  8.40D-01  7.22D-01  7.28D-01
 E= -1000.81765401977     Delta-E=       -0.000000000885 Rises=F Damp=F
 DIIS: error= 6.80D-07 at cycle  11 NSaved=  11.
 NSaved=11 IEnMin=11 EnMin= -1000.81765401977     IErMin=11 ErrMin= 6.80D-07
 ErrMax= 6.80D-07  0.00D+00 EMaxC= 1.00D-01 BMatC= 1.81D-10 BMatP= 9.94D-10
 IDIUse=1 WtCom= 1.00D+00 WtEn= 0.00D+00
 Coeff-Com:  0.294D-05-0.184D-05-0.147D-03-0.346D-03-0.815D-03-0.143D-02
 Coeff-Com: -0.880D-03 0.210D-01 0.512D-01 0.317D+00 0.614D+00
 Coeff:      0.294D-05-0.184D-05-0.147D-03-0.346D-03-0.815D-03-0.143D-02
 Coeff:     -0.880D-03 0.210D-01 0.512D-01 0.317D+00 0.614D+00
 Gap=     0.160 Goal=   None    Shift=    0.000
 RMSDP=3.62D-08 MaxDP=2.34D-06 DE=-8.85D-10 OVMax= 6.21D-06

 Cycle  12  Pass 1  IDiag  1:
 RMSU=  2.06D-08    CP:  9.56D-01  9.87D-01  7.69D-01  6.40D-01  6.12D-01
                    CP:  7.18D-01  6.16D-01  8.43D-01  7.28D-01  8.23D-01
                    CP:  7.21D-01
 E= -1000.81765401994     Delta-E=       -0.000000000178 Rises=F Damp=F
 DIIS: error= 1.26D-07 at cycle  12 NSaved=  12.
 NSaved=12 IEnMin=12 EnMin= -1000.81765401994     IErMin=12 ErrMin= 1.26D-07
 ErrMax= 1.26D-07  0.00D+00 EMaxC= 1.00D-01 BMatC= 1.28D-11 BMatP= 1.81D-10
 IDIUse=1 WtCom= 1.00D+00 WtEn= 0.00D+00
 Coeff-Com:  0.254D-06 0.212D-05-0.218D-04-0.634D-04-0.203D-03-0.581D-03
 Coeff-Com: -0.169D-02-0.317D-02-0.115D-02 0.858D-01 0.277D+00 0.644D+00
 Coeff:      0.254D-06 0.212D-05-0.218D-04-0.634D-04-0.203D-03-0.581D-03
 Coeff:     -0.169D-02-0.317D-02-0.115D-02 0.858D-01 0.277D+00 0.644D+00
 Gap=     0.160 Goal=   None    Shift=    0.000
 RMSDP=1.12D-08 MaxDP=5.51D-07 DE=-1.78D-10 OVMax= 1.84D-06

 Cycle  13  Pass 1  IDiag  1:
 RMSU=  8.60D-09    CP:  9.56D-01  9.87D-01  7.69D-01  6.40D-01  6.12D-01
                    CP:  7.18D-01  6.16D-01  8.44D-01  7.29D-01  8.30D-01
                    CP:  7.83D-01  7.97D-01
 E= -1000.81765401997     Delta-E=       -0.000000000028 Rises=F Damp=F
 DIIS: error= 4.84D-08 at cycle  13 NSaved=  13.
 NSaved=13 IEnMin=13 EnMin= -1000.81765401997     IErMin=13 ErrMin= 4.84D-08
 ErrMax= 4.84D-08  0.00D+00 EMaxC= 1.00D-01 BMatC= 2.53D-12 BMatP= 1.28D-11
 IDIUse=1 WtCom= 1.00D+00 WtEn= 0.00D+00
 Coeff-Com: -0.266D-06 0.137D-05 0.829D-05 0.134D-04 0.556D-05-0.109D-03
 Coeff-Com: -0.817D-03-0.468D-02-0.844D-02-0.219D-02 0.594D-01 0.359D+00
 Coeff-Com:  0.598D+00
 Coeff:     -0.266D-06 0.137D-05 0.829D-05 0.134D-04 0.556D-05-0.109D-03
 Coeff:     -0.817D-03-0.468D-02-0.844D-02-0.219D-02 0.594D-01 0.359D+00
 Coeff:      0.598D+00
 Gap=     0.160 Goal=   None    Shift=    0.000
 RMSDP=4.31D-09 MaxDP=2.62D-07 DE=-2.82D-11 OVMax= 7.14D-07

 Error on total polarization charges =  0.04017
 SCF Done:  E(RB3LYP) =  -1000.81765402     A.U. after   13 cycles
            NFock= 13  Conv=0.43D-08     -V/T= 2.0096
 KE= 9.913089685871D+02 PE=-6.391782678144D+03 EE= 2.364322573500D+03
 Leave Link  502 at Wed Mar  6 12:05:12 2019, MaxMem=  1342177280 cpu:            1674.8 elap:             111.1
 (Enter /gpfs/apps/hpc/Apps/Restricted/Gaussian/g16/Rev_B.01-AVX/g16/l601.exe)
 Copying SCF densities to generalized density rwf, IOpCl= 0 IROHF=0.

 **********************************************************************

            Population analysis using the SCF Density.

 **********************************************************************

 Alpha  occ. eigenvalues --  -19.15731 -14.39007 -14.33331 -10.27140 -10.24991
 Alpha  occ. eigenvalues --  -10.22750 -10.21664 -10.20247 -10.19654 -10.19517
 Alpha  occ. eigenvalues --  -10.19450 -10.19095 -10.18988 -10.18934 -10.18783
 Alpha  occ. eigenvalues --  -10.18693 -10.18457 -10.18152 -10.16731 -10.16727
 Alpha  occ. eigenvalues --  -10.16635 -10.16429 -10.16024 -10.16015  -1.04761
 Alpha  occ. eigenvalues --   -1.02284  -0.88635  -0.86243  -0.84551  -0.81889
 Alpha  occ. eigenvalues --   -0.80454  -0.76225  -0.74343  -0.72516  -0.71935
 Alpha  occ. eigenvalues --   -0.68290  -0.67848  -0.67606  -0.67343  -0.64188
 Alpha  occ. eigenvalues --   -0.62688  -0.61714  -0.60215  -0.59422  -0.56176
 Alpha  occ. eigenvalues --   -0.53943  -0.52785  -0.51984  -0.50338  -0.47744
 Alpha  occ. eigenvalues --   -0.47085  -0.45958  -0.45548  -0.44819  -0.44402
 Alpha  occ. eigenvalues --   -0.43580  -0.43312  -0.42768  -0.42556  -0.42214
 Alpha  occ. eigenvalues --   -0.41186  -0.41032  -0.41012  -0.38662  -0.37644
 Alpha  occ. eigenvalues --   -0.37562  -0.37038  -0.37023  -0.36382  -0.36208
 Alpha  occ. eigenvalues --   -0.35875  -0.35601  -0.35516  -0.34560  -0.33375
 Alpha  occ. eigenvalues --   -0.33269  -0.32310  -0.31943  -0.31507  -0.31247
 Alpha  occ. eigenvalues --   -0.31166  -0.30369  -0.28247  -0.26552  -0.23166
 Alpha  occ. eigenvalues --   -0.22301  -0.20449
 Alpha virt. eigenvalues --   -0.04405   0.00442   0.01333   0.02104   0.06926
 Alpha virt. eigenvalues --    0.07588   0.09806   0.10304   0.10830   0.13043
 Alpha virt. eigenvalues --    0.13773   0.14185   0.14750   0.14964   0.15339
 Alpha virt. eigenvalues --    0.15981   0.16247   0.16811   0.17121   0.17287
 Alpha virt. eigenvalues --    0.17600   0.17925   0.18526   0.18568   0.19148
 Alpha virt. eigenvalues --    0.19505   0.20127   0.20698   0.21076   0.21578
 Alpha virt. eigenvalues --    0.21881   0.22185   0.22548   0.22754   0.23279
 Alpha virt. eigenvalues --    0.23409   0.24391   0.24819   0.25576   0.25953
 Alpha virt. eigenvalues --    0.26828   0.27080   0.27201   0.28267   0.28962
 Alpha virt. eigenvalues --    0.30227   0.32253   0.34277   0.35651   0.36947
 Alpha virt. eigenvalues --    0.37439   0.38495   0.40443   0.42012   0.46096
 Alpha virt. eigenvalues --    0.47862   0.48379   0.49476   0.50099   0.50248
 Alpha virt. eigenvalues --    0.50781   0.51142   0.51291   0.51636   0.52269
 Alpha virt. eigenvalues --    0.52649   0.53847   0.54491   0.54705   0.55495
 Alpha virt. eigenvalues --    0.55923   0.56699   0.57596   0.58904   0.59048
 Alpha virt. eigenvalues --    0.59470   0.59482   0.60443   0.60894   0.61242
 Alpha virt. eigenvalues --    0.61963   0.62194   0.62431   0.62469   0.62962
 Alpha virt. eigenvalues --    0.63589   0.63995   0.65454   0.66538   0.66735
 Alpha virt. eigenvalues --    0.67220   0.68322   0.69289   0.70676   0.71125
 Alpha virt. eigenvalues --    0.72107   0.72645   0.73340   0.73458   0.76395
 Alpha virt. eigenvalues --    0.77511   0.77900   0.79394   0.79636   0.80444
 Alpha virt. eigenvalues --    0.81888   0.82183   0.82989   0.83181   0.83512
[...]
 0068,-0.00000007,0.00000146,0.00000138,0.00000053,0.00000005,0.0000025
 5,0.00000281,0.00000168,0.00002790,0.00004354,0.00000306,0.00000438,0.
 00000785,-0.00000006,0.00028927,-0.00010594,0.00004959,0.00000896,-0.0
 0000080,0.00000322,-0.00027929,0.00168595,-0.00162240,0.00005093,-0.00
 004861,0.00012372,-0.00039521,0.00014987,0.00001514,0.00037199,-0.0003
 3945,0.00056800,-0.00067434,-0.00725068,0.00135849,0.00136847,-0.00068
 685,-0.00193164,0.00005884,0.00024133,0.00029767,-0.00025145,0.0001503
 5,-0.00001045,0.05079566,-0.08440936,-0.07401932,-0.05712293,0.0915365
 7,0.00000406,0.00002356,-0.00000071,-0.00000351,0.00002229,0.00000016,
 0.00000391,-0.00001913,0.00000135,0.00002111,0.00001155,0.00000148,-0.
 00001422,0.00001957,-0.00000226,-0.00000914,-0.00001845,0.00000071,-0.
 00002167,-0.00008820,-0.00000014,-0.00000165,0.00000055,-0.00000039,0.
 00000013,0.00000179,-0.00000022,0.00000022,0.00000121,-0.00000018,-0.0
 0002607,0.00001172,-0.00000194,-0.00015332,-0.00017016,-0.00008144,0.0
 0005011,0.00005098,0.00002482,0.00012388,0.00001243,-0.00007076,-0.000
 14257,0.00045152,0.00002513,0.00082421,-0.00057408,0.00026807,0.000425
 27,-0.00001810,0.00014026,0.00001961,0.00006185,-0.00000051,-0.0009656
 1,0.00043336,-0.00040049,-0.00004400,0.00001643,0.00003877,-0.00113819
 ,0.00045398,-0.00050115,-0.00013575,0.00006088,0.00003825,0.00000128,0
 .00002867,0.00000340,0.00000537,-0.00000058,0.00000211,-0.00000564,-0.
 00000620,-0.00000284,0.00000244,-0.00000825,0.00001464,0.00000285,0.00
 000691,-0.00000118,0.00001004,-0.00000184,-0.00000737,0.00000379,0.000
 00008,0.00000384,0.00001550,-0.00000611,-0.00002638,-0.00000220,-0.000
 00124,0.00000356,0.00001080,-0.00000109,0.00001062,0.00000446,0.000006
 95,0.00000444,-0.00001502,-0.00001452,-0.00003744,-0.00000684,0.000000
 60,-0.00001344,0.00020575,0.00009403,0.00011345,0.00002199,-0.00000524
 ,0.00000844,-0.00037241,0.00065360,0.00079671,-0.00004485,-0.00003572,
 -0.00001288,-0.00009968,-0.00013059,0.00021925,0.00025559,-0.00013139,
 0.00033938,-0.00049027,-0.00096629,0.00102992,0.00038324,0.00002839,0.
 00004114,-0.00000248,0.00021915,-0.00001294,-0.00005051,0.00016616,0.0
 0029165,0.10564605,-0.07580121,-0.20568493,-0.11709064,0.08332316,0.22
 034105,0.00001086,0.00000752,0.00000280,0.00000120,-0.00000180,-0.0000
 0263,0.00000270,-0.00000662,0.00000099,0.00000781,0.00000528,0.0000004
 3,-0.00000451,0.00000870,-0.00000063,-0.00000417,-0.00000625,0.0000003
 4,0.00000735,-0.00003248,0.00000450,-0.00000105,-0.00000010,-0.0000003
 2,0.00000002,0.00000136,-0.00000011,0.00000035,0.00000120,-0.00000023,
 0.00000984,0.00003319,0.00000301,0.00023519,-0.00002591,-0.00001687,-0
 .00002826,0.00003764,-0.00002167,0.00004701,0.00004166,-0.00002328,0.0
 0002525,-0.00006087,-0.00003751,-0.00086940,-0.00041741,0.00076986,0.0
 0011554,0.00000379,0.00025494,0.00000910,0.00000659,-0.00000856,-0.001
 53131,-0.00095017,0.00046666,-0.00000174,0.00000812,0.00004340,-0.0013
 6823,-0.00026534,0.00085037,-0.00003188,0.00016001,0.00005221,-0.00002
 616,-0.00006160,0.00000771,0.00000895,0.00002069,-0.00000263,-0.000003
 99,-0.00000320,-0.00000189,-0.00000174,0.00000506,0.00000731,0.0000006
 6,-0.00000054,-0.00000141,0.00000319,-0.00000300,-0.00000190,-0.000000
 29,0.00000052,-0.00000168,0.00001289,-0.00000728,-0.00000728,-0.000001
 42,-0.00000066,0.00000153,0.00000646,-0.00000148,0.00000593,-0.0000008
 1,0.00000139,0.00000004,0.00001139,-0.00005183,0.00001198,0.00009290,0
 .00027391,0.00004897,-0.00001168,0.00001115,0.00000820,0.00001338,0.00
 000019,-0.00000579,0.00032019,0.00075175,0.00039397,0.00037726,-0.0000
 3307,0.00026551,0.00041098,0.00000370,-0.00036968,0.00000835,-0.000121
 94,-0.00027217,-0.00009576,0.00013641,-0.00040513,-0.00003683,-0.00006
 273,0.00016562,-0.00006037,0.00001090,-0.00003557,0.00015305,0.0001692
 1,0.00011721,-0.08579228,0.03698122,-0.08976460,0.00677116,-0.00689189
 ,0.01475323,0.09171453,-0.00000323,0.00000733,-0.00000330,-0.00000463,
 0.00001632,-0.00000044,0.00000110,-0.00000777,0.00000004,0.00000781,0.
 00000370,0.,-0.00000549,0.00000603,-0.00000065,-0.00000362,-0.00000616
 ,-0.00000184,0.00000447,-0.00001666,0.00004348,-0.00000047,0.00000040,
 0.00000045,-0.00000002,0.00000036,0.00000017,-0.00000010,0.00000017,0.
 00000053,-0.00002116,-0.00002656,-0.00000675,0.00008786,-0.00034558,-0
 .00024985,0.00018131,0.00001536,0.00003854,-0.00006097,0.00020014,-0.0
 0001094,-0.00023659,0.00000812,-0.00004607,-0.00015369,0.00008040,-0.0
 0024635,0.00105425,0.00136215,0.00015292,-0.00000043,0.00001580,0.0000
 0511,-0.00092719,0.00014502,0.00025113,-0.00000964,-0.00000724,0.00001
 391,0.01356819,-0.00928512,0.02804580,-0.00016066,0.00002950,-0.000112
 93,0.00000471,0.00007558,-0.00000291,-0.00000868,-0.00000455,-0.000004
 43,-0.00000172,-0.00000102,0.00000284,-0.00000768,0.00000284,0.0000028
 6,0.00000272,0.00000256,-0.00000170,0.00000048,0.00000119,0.00000117,-
 0.00000045,-0.00000009,-0.00000055,-0.00000193,-0.00000446,0.00000153,
 -0.00000084,0.00000125,-0.00000242,0.00000228,0.00000065,-0.00000016,0
 .00000162,0.00000213,0.00000076,-0.00008420,-0.00003614,0.00000805,0.0
 0030022,-0.00003034,-0.00008273,-0.00000748,-0.00002318,0.00000634,0.0
 0000727,0.,-0.00000138,-0.00057910,-0.00727251,-0.00109372,0.00012045,
 0.00021529,-0.00028172,0.00107332,-0.00061828,0.00212681,-0.00025631,0
 .00016020,-0.00004606,-0.00029897,0.00130272,0.00144604,-0.00037316,0.
 00014146,-0.00005739,0.00007544,-0.00001498,-0.00014338,-0.00001995,-0
 .00026665,-0.00066575,0.03645820,-0.07601058,0.07575141,-0.00587663,0.
 00417680,-0.01016639,-0.04042038,0.08289199,-0.00000192,-0.00002195,0.
 00000173,0.00000356,-0.00002251,0.00000233,-0.00000342,0.00001784,-0.0
 0000124,-0.00001962,-0.00001048,-0.00000072,0.00001329,-0.00001785,0.0
 0000212,0.00000826,0.00001722,0.00000038,0.00002217,0.00008130,0.00000
 164,0.00000150,-0.00000061,-0.00000006,-0.00000010,-0.00000156,-0.0000
 0010,-0.00000012,-0.00000100,-0.00000021,0.00002815,-0.00000495,0.0000
 0209,0.00020253,0.00018130,-0.00005879,-0.00006822,-0.00004197,0.00000
 852,-0.00009587,-0.00001847,-0.00008925,0.00015618,-0.00043836,0.00004
 481,-0.00083195,0.00062438,0.00042772,-0.00046040,-0.00002083,0.000094
 73,-0.00001725,-0.00005894,-0.00000431,0.00034790,-0.00076581,-0.00012
 571,0.00003904,-0.00001144,0.00004819,0.00061628,-0.00042481,-0.000919
 52,0.00012612,-0.00003273,0.00007492,-0.00000681,-0.00004136,0.0000070
 2,-0.00000326,0.00000473,-0.00000100,0.00000519,0.00000549,-0.00000268
 ,-0.00001390,0.00000566,-0.00002665,-0.00000467,-0.00000702,0.00000406
 ,-0.00001080,0.00000073,0.00000963,0.00000184,0.00000161,0.00000305,-0
 .00000125,0.00000723,0.00001168,-0.00000018,0.00000094,0.00000244,-0.0
 0000785,0.00000129,-0.00000670,-0.00000279,-0.00000647,-0.00000163,0.0
 0000798,0.00000388,-0.00002371,0.00010252,-0.00007004,0.00009140,-0.00
 000436,-0.00001794,-0.00001318,-0.00001982,0.00000534,0.00000216,0.000
 43028,0.00138727,0.00109586,0.00002584,-0.00022107,0.00003275,-0.00038
 008,-0.00000169,-0.00012276,0.00000002,-0.00016403,0.00030635,0.000467
 39,-0.00082057,0.00063229,0.00007119,0.00013313,0.00025269,0.00005976,
 -0.00000287,0.00000022,-0.00016894,0.00007702,0.00019741,-0.08882643,0
 .07774959,-0.24019590,-0.01036578,0.00834686,-0.01948208,0.09853754,-0
 .08520043,0.25866134,-0.00003097,-0.00004050,-0.00000078,0.00000616,-0
 .00002017,0.00000173,-0.00001032,0.00003661,-0.00000287,-0.00004182,-0
 .00002479,-0.00000219,0.00002657,-0.00004233,0.00000461,0.00002050,0.0
 0003600,-0.00000045,0.00000781,0.00021948,0.00000103,0.00000405,-0.000
 00015,0.00000044,-0.00000010,-0.00000511,0.00000022,-0.00000104,-0.000
 00416,0.00000011,0.00002014,-0.00008583,0.00000315,-0.00034552,0.00044
 712,-0.00005359,0.00002027,-0.00022184,0.00000382,-0.00021525,0.000031
 02,-0.00001510,0.00011068,-0.00035524,0.00000248,-0.00026514,0.0003730
 0,-0.00004818,0.00083556,0.00030162,0.00004138,-0.00002891,-0.00005756
 ,0.00000014,0.00019145,-0.00073543,0.00004401,0.00005169,-0.00006527,0
 .00000207,-0.00085133,0.00085625,0.00009705,0.00025677,-0.00025529,0.0
 0002337,0.00003981,0.00008543,0.00000077,-0.00003002,-0.00004802,-0.00
 000246,0.00001665,0.00001248,0.00000114,-0.00001883,0.00002615,-0.0000
 3330,0.00000326,-0.00000387,-0.00000069,-0.00002317,0.00000696,0.00001
 822,0.00000462,0.00000017,0.00000192,-0.00002233,0.00002747,0.00003125
 ,0.00000444,0.00000007,-0.00000261,-0.00002187,0.00000609,-0.00001960,
 0.00000332,-0.00000354,0.00000011,-0.00001858,0.00000482,0.00000568,0.
 00000884,-0.00000989,0.00002008,0.00001171,-0.00001235,-0.00002186,-0.
 00002532,0.00001325,-0.00000347,0.00009333,0.00071548,-0.00026727,0.00
 057425,-0.00003961,0.00041689,0.00036999,0.00000624,0.00008210,-0.0000
 0046,-0.00003687,-0.00002084,0.00029613,0.00089095,0.00024651,0.000382
 86,-0.00000439,-0.00001416,0.00040698,-0.00008093,-0.00047516,0.000003
 53,-0.00002269,0.00003339,-0.28689473,-0.08231781,-0.01772426,-0.01423
 417,-0.00489328,-0.00195976,-0.01050698,-0.00342610,0.00004207,0.30981
 947,-0.00005896,-0.00004267,-0.00000262,0.00000578,-0.00000957,0.00000
 123,-0.00001277,0.00003430,-0.00000291,-0.00003934,-0.00002625,-0.0000
 0188,0.00002289,-0.00004336,0.00000431,0.00002399,0.00003055,0.0000004
 9,-0.00015326,0.00023042,-0.00002193,0.00000479,-0.00000082,0.00000053
 ,-0.00000034,-0.00000558,0.00000022,-0.00000072,-0.00000507,0.00000010
 ,0.00000856,-0.00010867,0.00000350,-0.00222279,0.00027944,-0.00015377,
 0.00020158,-0.00071715,0.00002039,-0.00003762,0.00010343,-0.00000504,-
 0.00022943,0.00018310,-0.00001892,0.00122424,-0.00069419,0.00009103,0.
 00179640,-0.00617356,0.00023782,-0.00002507,0.00002484,-0.00000123,0.0
 0009323,0.00050883,-0.00000329,-0.00000426,-0.00006904,0.00000288,-0.0
 3082823,-0.01273801,-0.00226297,0.00023256,-0.00016249,0.00002121,0.00
 005359,0.00014965,-0.00000142,-0.00003140,-0.00011922,0.00000063,0.000
 01795,0.00000762,0.00000097,-0.00002224,0.00002665,-0.00002433,0.00000
 861,0.00000341,-0.00000467,-0.00001684,0.00000713,0.00001461,0.0000028
 5,-0.00000007,0.00000301,-0.00002199,0.00002743,0.00002146,0.00000278,
 -0.00000036,-0.00000274,-0.00001570,0.00000622,-0.00001484,0.00000852,
 0.00000387,0.00000418,-0.00004605,0.00000365,-0.00000220,-0.00000123,0
 .00000333,-0.00000177,-0.00000358,0.00000260,0.00000077,-0.00000117,0.
 00001347,-0.00000043,-0.00092283,0.00119910,-0.00089603,0.00070817,0.0
 0018690,0.00025696,0.00021413,0.00024809,-0.00034373,0.00010074,-0.000
 01698,0.00011031,-0.00151225,0.00096225,0.00051121,0.00017997,0.000276
 46,0.00035500,0.00072202,0.00013471,-0.00038839,0.00011054,-0.00002158
 ,-0.00007742,-0.08048060,-0.07351878,-0.00627270,0.01148834,0.00366309
 ,0.00200378,0.01074522,0.00311298,-0.00020549,0.08871618,0.08304040,-0
 .00000161,-0.00000196,0.00000511,0.00000040,-0.00000117,-0.00000075,-0
 .00000047,0.00000193,-0.00000040,-0.00000226,-0.00000125,0.00000004,0.
 00000150,-0.00000227,-0.00000038,0.00000079,0.00000216,0.00000301,0.00
 000807,0.00000991,-0.00005531,0.00000018,0.00000002,0.00000019,0.,-0.0
 0000026,0.00000012,0.,-0.00000024,-0.00000065,0.00000085,-0.00000413,0
 .00000254,-0.00001164,0.00003795,0.00036196,-0.00000362,-0.00000260,-0
 .00004124,-0.00000743,-0.00000426,-0.00002718,0.00000742,-0.00001306,0
 .00011369,-0.00005165,0.00004119,0.00043149,0.00001152,0.00011697,0.00
 036130,0.00000020,-0.00000345,-0.00002086,0.00001552,-0.00006129,-0.00
 037986,0.00000094,-0.00000270,0.00003246,0.00066391,0.00027771,-0.0016
 1228,0.00001579,-0.00001602,0.00000002,0.00000249,0.00000349,-0.000003
 36,-0.00000145,-0.00000104,-0.00000084,0.00000102,0.00000061,-0.000002
 64,-0.00000709,0.00000230,-0.00000565,-0.00000012,-0.00000031,0.000000
 75,-0.00000213,-0.00000012,0.00000269,0.00000028,0.00000010,0.00000142
 ,0.00000499,0.00000012,-0.00000149,0.00000019,0.00000003,0.00000115,-0
 .00000033,0.00000082,0.00000059,0.00000027,-0.00000017,0.00000060,-0.0
 0000095,0.00000017,-0.00001673,0.00000620,-0.00000496,0.00000726,-0.00
 000627,0.00000320,0.00000202,-0.00000182,0.00000077,0.00000531,0.00048
 505,0.00036980,0.00005626,-0.00016064,0.00001816,0.00008645,0.00004121
 ,-0.00012012,-0.00006701,0.00004617,0.00002694,-0.00000255,-0.00070130
 ,-0.00058031,-0.00011657,0.00002923,0.00010539,-0.00008849,0.00014332,
 -0.00036930,0.00013651,-0.00003046,-0.00003826,-0.00001619,-0.01764262
 ,-0.00622413,-0.04882807,0.02339614,0.00885890,0.00257913,-0.02579270,
 -0.00946973,-0.00094310,0.01954316,0.00704444,0.04803932,-0.01470459,0
 .00531951,-0.00177978,0.00135283,-0.00252495,-0.00029931,0.00021826,-0
 .00051785,0.00008175,0.00165378,0.00199258,-0.00059382,-0.00690859,-0.
 00088762,-0.00072857,-0.33987205,0.03770124,-0.02790630,-0.00064790,0.
 00001210,0.00000065,-0.00012576,0.00006568,0.00010085,-0.00045048,-0.0
 0005905,-0.00007478,0.00025280,0.00008678,0.00056731,-0.00116760,-0.00
 069364,-0.00007050,-0.00001788,-0.00004519,-0.00000424,0.00005694,0.00
 002118,-0.00001469,-0.00005863,0.00002223,-0.00000212,-0.00004351,-0.0
 0006001,-0.00000136,0.00005107,-0.00006220,0.00000311,0.00000755,0.000
 04056,0.00000455,0.00000282,0.00001118,-0.00000043,0.00000250,-0.00000
 445,0.00000011,-0.00002375,0.00001218,-0.00000228,0.00002268,0.0000087
 1,0.00000153,-0.00016103,-0.00024965,-0.00000357,0.00030572,0.00029479
 ,0.00000776,0.00142872,0.00073580,0.00033371,-0.00073894,-0.00075215,0
 .00009464,0.00000541,-0.00000887,0.00000895,-0.00000116,0.00000263,0.0
 0000052,0.00000659,-0.00000194,-0.00000497,-0.00000085,0.00000018,-0.0
 0000004,0.00000548,-0.00000935,-0.00000809,-0.00000092,0.00000005,0.00
 000048,0.00000600,-0.00000180,0.00000521,-0.00000099,0.00000232,-0.000
 00063,0.00001374,-0.00000112,0.00000020,-0.00000101,0.00000152,-0.0000
 0177,-0.00000096,0.00000191,0.00000187,0.00000274,-0.00000621,0.000000
 31,-0.00000807,-0.00000299,0.00000623,-0.00000583,-0.00000263,-0.00000
 501,0.00000688,-0.00000021,0.00000657,0.00000122,-0.00000231,-0.000001
 56,-0.00000766,-0.00000349,-0.00000752,0.00000788,-0.00000090,-0.00000
 475,-0.00000640,-0.00000270,0.00000423,0.00000120,-0.00000203,0.000001
 75,-0.00001225,0.00000257,-0.00000113,0.00000130,-0.00000007,0.0000011
 0,0.00000128,-0.00000026,-0.00000081,-0.00000398,-0.00000500,-0.000000
 22,0.35955542,-0.02546346,0.00785531,-0.00240202,-0.00098594,-0.003520
 43,0.00041881,-0.00028780,-0.00111162,0.00001157,0.00085088,-0.0048450
 4,0.00073656,0.02920926,0.00191419,0.00243216,0.03701002,-0.06619772,0
 .00460116,-0.00051412,0.00043189,-0.00008956,0.00004456,0.00023372,-0.
 00008406,0.00149459,-0.00012099,0.00015846,-0.00051441,0.00140365,-0.0
 0028715,-0.00203630,-0.00076845,-0.00012849,-0.00015747,0.00010193,-0.
 00001419,0.00009981,0.00007961,0.00001584,0.00000257,-0.00003196,0.000
 00030,0.00002221,0.00000655,0.00000207,-0.00001580,0.00000122,-0.00000
 117,0.00001690,-0.00002275,-0.00000073,0.00000505,-0.00000224,-0.00000
 007,0.00000136,-0.00000151,0.00000036,-0.00000261,0.00000124,-0.000000
 53,0.00000186,0.00000463,0.00000009,-0.00008052,-0.00037125,0.00000587
 ,0.00028614,0.00033815,0.00001072,0.00129514,0.00235616,-0.00015354,0.
 00014274,-0.00021509,-0.00001843,0.00000019,-0.00000489,0.00000130,-0.
 00000118,-0.00000098,-0.00000008,0.00000057,0.00000017,-0.00000110,0.0
 0000041,0.00000036,0.00000038,0.,-0.00000502,-0.00000108,0.00000043,0.
 00000029,-0.00000038,0.00000048,0.00000025,0.00000103,-0.00000124,-0.0
 0000107,0.00000008,0.00000213,-0.00000065,0.00000010,0.00000021,0.0000
 0032,-0.00000048,0.00000020,0.00000037,0.00000048,-0.00000013,-0.00000
 072,0.00000003,-0.00000222,0.00000112,-0.00000106,-0.00000033,-0.00000
 152,-0.00000047,0.00000279,-0.00000117,0.00000334,0.00000003,-0.000001
 39,-0.00000072,-0.00000280,0.00000118,0.00000043,0.00000326,-0.0000015
 9,-0.00000242,-0.00000033,-0.00000163,0.00000051,-0.00000001,-0.000001
 17,0.00000075,-0.00000068,0.00000119,-0.00000004,0.00000027,-0.0000005
 7,-0.00000039,0.00000018,-0.00000056,0.00000043,0.00000016,-0.00000051
 ,0.00000003,-0.04042704,0.06249899,-0.00001529,0.00021671,0.00317188,-
 0.00040652,0.00030042,0.00620159,0.00007129,-0.00004084,-0.00041834,-0
 .00048219,0.00083842,0.00724244,-0.00236656,-0.00006405,0.00182420,-0.
 02802423,0.00444398,-0.03702931,0.00001138,-0.00004757,-0.00047817,0.0
 0010320,-0.00008237,-0.00134046,-0.00015515,0.00002464,0.00043057,0.00
 059889,-0.00021355,-0.00438073,0.00000138,0.00000093,0.00003345,0.0000
 0116,-0.00000844,0.00002247,-0.00001544,0.00000604,0.00017069,-0.00000
 206,0.00000039,-0.00001537,-0.00000467,-0.00000334,0.00000833,0.000003
 21,-0.00000456,0.00000410,0.00000339,0.00000254,-0.00004760,-0.0000006
 1,0.00000089,-0.00000338,-0.00000026,-0.00000023,0.00000414,-0.0000015
 5,0.00000097,0.00000038,0.00000156,0.00000035,-0.00000010,-0.00000500,
 -0.00000330,0.00000972,0.00000781,0.00001110,0.00003845,0.00031259,-0.
 00015730,-0.00271798,0.00007818,-0.00000461,-0.00029194,0.00000024,-0.
 00000207,0.00000054,-0.00000020,-0.00000008,0.00000159,0.00000055,0.00
 000010,-0.00000040,-0.00000044,-0.00000059,-0.00000079,0.00000041,0.00
 000061,-0.00000067,0.00000046,0.00000068,-0.00000083,0.00000039,-0.000
 00045,0.00000032,-0.00000005,0.00000057,0.00000164,0.00000097,-0.00000
 009,-0.00000061,0.00000050,0.00000060,-0.00000056,-0.00000060,-0.00000
 031,-0.00000028,0.00000020,-0.00000044,0.00000018,-0.00000023,-0.00000
 020,0.00000044,-0.00000039,-0.00000018,-0.00000041,0.00000094,0.000000
 22,0.00000117,0.00000031,-0.00000075,-0.00000051,-0.00000058,-0.000000
 32,-0.00000060,-0.00000035,-0.00000012,0.00000049,-0.00000039,-0.00000
 002,0.00000018,-0.00000008,0.00000052,-0.00000037,-0.00000092,0.000000
 16,0.00000083,0.00000023,-0.00000007,-0.00000006,-0.00000004,0.0000000
 8,-0.00000023,-0.00000029,-0.00000032,0.00000023,0.03028488,-0.0052147
 3,0.02755971\\-0.00001142,0.00000365,-0.00000089,-0.00001162,0.,-0.000
 00035,-0.00001534,-0.00000155,-0.00000011,-0.00001824,0.00000083,-0.00
 000048,-0.00001786,0.00000459,-0.00000091,-0.00001380,0.00000611,-0.00
 000106,-0.00000546,0.00000112,-0.00000060,-0.00001577,-0.00000448,0.00
 000036,-0.00002107,-0.00000020,-0.00000034,-0.00002001,0.00000647,-0.0
 0000130,-0.00000874,-0.00000181,0.00000033,-0.00000040,-0.00000329,0.0
 0000025,-0.00000171,0.00000003,-0.00000001,0.00000043,0.00000344,-0.00
 000043,0.00000453,0.00000286,-0.00000032,0.00000557,-0.00000102,0.0000
 0013,0.00000319,-0.00000392,0.00000060,-0.00000037,0.00000604,-0.00000
 080,0.00000848,-0.00000130,0.00000041,0.00000692,0.00000606,-0.0000006
 9,0.00000489,-0.00000803,0.00000148,-0.00000292,-0.00000600,0.00000106
 ,-0.00000536,-0.00000554,0.00000059,-0.00000730,0.00000437,-0.00000038
 ,-0.00000616,0.00000654,-0.00000115,0.00000581,0.00000844,-0.00000109,
 0.00000297,0.00000930,-0.00000131,0.00000763,0.00001085,-0.00000142,0.
 00000615,0.00000689,-0.00000086,0.00000661,0.00000836,-0.00000119,0.00
 000749,0.00000680,-0.00000081,0.00000848,0.00001081,-0.00000139,0.0000
 0385,0.00000935,-0.00000127,0.00001103,0.00000484,-0.00000042,0.000012
 09,0.00000332,-0.00000028,0.00001155,0.00000331,-0.00000037,0.00001280
 ,0.00000740,-0.00000084,0.00000309,-0.00000958,0.00000128,0.00000431,-
 0.00001251,0.00000192,0.00000015,-0.00000987,0.00000140,0.00000387,-0.
 00000824,0.00000125,0.00000399,-0.00001023,0.00000144,0.00000107,-0.00
 001043,0.00000154,0.00000524,-0.00001291,0.00000196,0.00000528,-0.0000
 0874,0.00000140,0.00000925,-0.00000761,0.00000119,0.00000992,-0.000006
 35,0.00000112,0.00001058,-0.00000667,0.00000121,0.00001010,-0.00001069
 ,0.00000174,-0.00001377,0.00000918,-0.00000159\\\@


 POCKETA-POCKETA
 BARON VON RICHTOFEN
 SLAUGHTERED THE ALLIES WITH
 HARDLY A CARE.
 KILLED EIGHTY-ONE WITH HIS
 BLOOD-COLORED TRIPLANE, THEN
 UN-AEROBATICALLY
 PLUNGED FROM THE AIR.
   -- TONY HOFFMAN
 Job cpu time:       0 days  5 hours  1 minutes 25.2 seconds.
 Elapsed time:       0 days  0 hours 18 minutes 54.1 seconds.
 File lengths (MBytes):  RWF=   1532 Int=      0 D2E=      0 Chk=     40 Scr=      8
 Normal termination of Gaussian 16 at Wed Mar  6 12:42:23 2019.
