 Entering Gaussian System, Link 0=g16
 Input=cyclohexyl-diBIP-E3PT.com
 Output=cyclohexyl-diBIP-E3PT.log
 Initial command:
 /gpfs/apps/hpc/Apps/Restricted/Gaussian/Rev_A.03/g16/l1.exe "/gpfs/scratch60/fas/hammes_schiffer/jg2487/c42n01/Gau-73194.inp" -scrdir="/gpfs/scratch60/fas/hammes_schiffer/jg2487/c42n01/"
 Entering Link 1 = /gpfs/apps/hpc/Apps/Restricted/Gaussian/Rev_A.03/g16/l1.exe PID=     73195.
  
 Copyright (c) 1988,1990,1992,1993,1995,1998,2003,2009,2016,
            Gaussian, Inc.  All Rights Reserved.
  
 This is part of the Gaussian(R) 16 program.  It is based on
 the Gaussian(R) 09 system (copyright 2009, Gaussian, Inc.),
 the Gaussian(R) 03 system (copyright 2003, Gaussian, Inc.),
 the Gaussian(R) 98 system (copyright 1998, Gaussian, Inc.),
 the Gaussian(R) 94 system (copyright 1995, Gaussian, Inc.),
 the Gaussian 92(TM) system (copyright 1992, Gaussian, Inc.),
 the Gaussian 90(TM) system (copyright 1990, Gaussian, Inc.),
 the Gaussian 88(TM) system (copyright 1988, Gaussian, Inc.),
 the Gaussian 86(TM) system (copyright 1986, Carnegie Mellon
 University), and the Gaussian 82(TM) system (copyright 1983,
 Carnegie Mellon University). Gaussian is a federally registered
 trademark of Gaussian, Inc.
  
 This software contains proprietary and confidential information,
 including trade secrets, belonging to Gaussian, Inc.
  
 This software is provided under written license and may be
 used, copied, transmitted, or stored only in accord with that
 written license.
  
 The following legend is applicable only to US Government
 contracts under FAR:
  
                    RESTRICTED RIGHTS LEGEND
  
 Use, reproduction and disclosure by the US Government is
 subject to restrictions as set forth in subparagraphs (a)
 and (c) of the Commercial Computer Software - Restricted
 Rights clause in FAR 52.227-19.
  
 Gaussian, Inc.
 340 Quinnipiac St., Bldg. 40, Wallingford CT 06492
  
  
 ---------------------------------------------------------------
 Warning -- This program may not be used in any manner that
 competes with the business of Gaussian, Inc. or will provide
 assistance to any competitor of Gaussian, Inc.  The licensee
 of this program is prohibited from giving any competitor of
 Gaussian, Inc. access to this program.  By using this program,
 the user acknowledges that Gaussian, Inc. is engaged in the
 business of creating and licensing software in the field of
 computational chemistry and represents and warrants to the
 licensee that it is not a competitor of Gaussian, Inc. and that
 it will not use this program in any manner prohibited above.
 ---------------------------------------------------------------
  

 Cite this work as:
 Gaussian 16, Revision A.03,
 M. J. Frisch, G. W. Trucks, H. B. Schlegel, G. E. Scuseria, 
 M. A. Robb, J. R. Cheeseman, G. Scalmani, V. Barone, 
 G. A. Petersson, H. Nakatsuji, X. Li, M. Caricato, A. V. Marenich, 
 J. Bloino, B. G. Janesko, R. Gomperts, B. Mennucci, H. P. Hratchian, 
 J. V. Ortiz, A. F. Izmaylov, J. L. Sonnenberg, D. Williams-Young, 
 F. Ding, F. Lipparini, F. Egidi, J. Goings, B. Peng, A. Petrone, 
 T. Henderson, D. Ranasinghe, V. G. Zakrzewski, J. Gao, N. Rega, 
 G. Zheng, W. Liang, M. Hada, M. Ehara, K. Toyota, R. Fukuda, 
 J. Hasegawa, M. Ishida, T. Nakajima, Y. Honda, O. Kitao, H. Nakai, 
 T. Vreven, K. Throssell, J. A. Montgomery, Jr., J. E. Peralta, 
 F. Ogliaro, M. J. Bearpark, J. J. Heyd, E. N. Brothers, K. N. Kudin, 
 V. N. Staroverov, T. A. Keith, R. Kobayashi, J. Normand, 
 K. Raghavachari, A. P. Rendell, J. C. Burant, S. S. Iyengar, 
 J. Tomasi, M. Cossi, J. M. Millam, M. Klene, C. Adamo, R. Cammi, 
 J. W. Ochterski, R. L. Martin, K. Morokuma, O. Farkas, 
 J. B. Foresman, and D. J. Fox, Gaussian, Inc., Wallingford CT, 2016.
 
 ******************************************
 Gaussian 16:  ES64L-G16RevA.03 25-Dec-2016
                21-Dec-2018 
 ******************************************
 %chk=cyclohexyl-diBIP-E3PT.chk
 %mem=10GB
 %nprocshared=16
 Will use up to   16 processors via shared memory.
 ----------------------------------------------------------------
 #p freq(ReadFC,InternalModes) Geom(AllCheck) NoSymm scale=0.9631
 ----------------------------------------------------------------
 1/18=20,29=7,38=1,114=963100/1,3;
 2/9=110,12=2,15=1,40=1/2;
 7/8=21,25=11,30=1/16;
 99/5=2/99;
 Leave Link    1 at Fri Dec 21 18:12:37 2018, MaxMem=  1342177280 cpu:               9.0 elap:               0.6
 (Enter /gpfs/apps/hpc/Apps/Restricted/Gaussian/Rev_A.03/g16/l101.exe)
 Structure from the checkpoint file:  "cyclohexyl-diBIP-E3PT.chk"
 ----------------------------------------------------------------------
 cyclohexylimine diBIP oxidized, all three proton transferred, optimiza
 tion
 ----------------------------------------------------------------------
 Charge =  1 Multiplicity = 2
 Redundant internal coordinates found in file.  (old form).
 C,0,1.5153567613,1.1409983215,-0.1133751286
 C,0,0.3086726018,1.8726801145,-0.2415936183
 C,0,0.2929419042,3.2450867601,-0.4674865258
 C,0,1.5279075246,3.897325081,-0.5712234066
 C,0,2.7321495724,3.2010395488,-0.4469458851
 C,0,2.7566215584,1.811200693,-0.2204451957
 C,0,-0.0818321737,-0.2854057956,0.094216421
 H,0,-0.6379665983,3.7892789744,-0.5659615741
 H,0,1.5490827704,4.9654973921,-0.7470098696
 H,0,3.6724011359,3.7333110127,-0.5291211082
 C,0,-2.2729920012,-1.4607707673,0.2344275605
 C,0,-3.0160425492,-2.6651420612,0.341462273
 C,0,-2.4045169618,-3.9099294145,0.4891632943
 C,0,-1.0104349541,-3.9259046637,0.5204273009
 C,0,-0.2526746905,-2.7501840384,0.397407801
 C,0,-0.8594108067,-1.4991471343,0.2519583235
 C,0,-4.3562142182,-0.9067140513,0.1321211404
 H,0,-2.983627101,-4.8208717982,0.5737409114
 H,0,-0.4951138462,-4.8716559787,0.6362364722
 H,0,0.8285552007,-2.8037542415,0.4098984499
 N,0,-0.6819568552,0.9276107387,-0.0977248757
 C,0,-6.8794990142,-0.8109546859,-0.1030683426
 C,0,-5.5822763624,-0.1346919313,0.0316788026
 C,0,-5.5162926646,1.2451490312,0.068201026
 C,0,-6.6718719017,2.0406146137,-0.0312552601
 C,0,-7.9224820734,1.3981021886,-0.1907961424
 C,0,-8.0769474389,0.0276571123,-0.2307956928
 H,0,-4.5461118393,1.7099540411,0.1897572296
 H,0,-8.7997871757,2.0197688188,-0.2778976286
 C,0,-6.5445237436,3.5568884659,0.0747771644
 C,0,-9.4472572353,-0.6258561194,-0.3970005289
 O,0,-6.9469986453,-2.0691906546,-0.108687195
 N,0,-3.1233775271,-0.3864200506,0.111697776
 N,0,-4.3298687684,-2.2678964973,0.2680650007
 N,0,1.2555706722,-0.1894841151,0.0939179472
 C,0,4.0013036434,1.1210708763,-0.1066542707
 H,0,4.9248053875,1.684957676,-0.1895147223
 N,0,4.0960698078,-0.1608004007,0.0870952837
 C,0,5.3756576361,-0.8916113997,0.1979852878
 C,0,6.1872844388,-0.7610600335,-1.0978904547
 C,0,6.1740277452,-0.4100743523,1.4171997499
 H,0,5.0951259795,-1.9362757103,0.3433034034
 C,0,7.5222371763,-1.5029798831,-0.9793224567
 H,0,6.3775078739,0.3020248682,-1.285564891
 H,0,5.5990501217,-1.1408746204,-1.9370299196
 C,0,7.5091544983,-1.1552384801,1.5194658474
 H,0,6.3623230678,0.6646841558,1.3090270746
 H,0,5.5779485088,-0.5478072378,2.322882038
 C,0,8.3260274132,-1.0166439343,0.231030928
 H,0,8.0932799723,-1.3698568411,-1.9023706859
 H,0,7.3303766397,-2.5780344481,-0.8770542296
 H,0,8.0716692526,-0.7760555624,2.3769252794
 H,0,7.3154769175,-2.2175727524,1.7114978183
 H,0,9.2608274518,-1.5783962567,0.3137300828
 H,0,8.5974134218,0.0363722704,0.0853655724
 H,0,-5.1859394201,-2.8134742167,0.2513054932
 H,0,-1.6963051546,1.0333595982,-0.1160553639
 H,0,3.2118208181,-0.6778737405,0.158997687
 C,0,-5.5353736183,4.0655750303,-0.9759563525
 H,0,-5.4293235759,5.1496270402,-0.8828812001
 H,0,-4.5485594428,3.6182523777,-0.8379546131
 H,0,-5.878587123,3.8391128964,-1.9882644105
 C,0,-7.8827977878,4.2764240359,-0.139840917
 H,0,-8.2975165825,4.0683664175,-1.1294361435
 H,0,-8.6224638269,3.9874755446,0.6109458816
 H,0,-7.7293125101,5.3547801589,-0.0579320951
 C,0,-6.020209644,3.8963627524,1.4880505446
 H,0,-6.7199183729,3.5535917536,2.253992169
 H,0,-5.0518183891,3.4283524905,1.6773725272
 H,0,-5.9025002906,4.9786430353,1.587969574
 C,0,-9.4610359352,-1.4667523286,-1.6927358667
 H,0,-8.7038953065,-2.249277757,-1.6605343771
 H,0,-10.4431097856,-1.9318234442,-1.8149763206
 H,0,-9.2739610189,-0.8334831954,-2.5639839749
 C,0,-10.5700619525,0.418313409,-0.4923747411
 H,0,-10.6227929916,1.0379896904,0.4064485184
 H,0,-10.4466645379,1.0762496802,-1.3565612966
 H,0,-11.5257371113,-0.0996308728,-0.6021652173
 C,0,-9.7509872606,-1.5300772309,0.8197205974
 H,0,-10.7368040588,-1.9857149183,0.6915727447
 H,0,-9.0081354919,-2.3188738603,0.9212235987
 H,0,-9.7674871385,-0.9398491898,1.7398079025
 Recover connectivity data from disk.
 ITRead=  0  0  0  0  0  0  0  0  0  0  0  0  0  0  0  0  0  0  0  0
 ITRead=  0  0  0  0  0  0  0  0  0  0  0  0  0  0  0  0  0  0  0  0
 ITRead=  0  0  0  0  0  0  0  0  0  0  0  0  0  0  0  0  0  0  0  0
 ITRead=  0  0  0  0  0  0  0  0  0  0  0  0  0  0  0  0  0  0  0  0
 ITRead=  0  0
 MicOpt= -1 -1 -1 -1 -1 -1 -1 -1 -1 -1 -1 -1 -1 -1 -1 -1 -1 -1 -1 -1
 MicOpt= -1 -1 -1 -1 -1 -1 -1 -1 -1 -1 -1 -1 -1 -1 -1 -1 -1 -1 -1 -1
 MicOpt= -1 -1 -1 -1 -1 -1 -1 -1 -1 -1 -1 -1 -1 -1 -1 -1 -1 -1 -1 -1
 MicOpt= -1 -1 -1 -1 -1 -1 -1 -1 -1 -1 -1 -1 -1 -1 -1 -1 -1 -1 -1 -1
 MicOpt= -1 -1
 NAtoms=     82 NQM=       82 NQMF=       0 NMMI=      0 NMMIF=      0
                NMic=       0 NMicF=      0.
                    Isotopes and Nuclear Properties:
 (Nuclear quadrupole moments (NQMom) in fm**2, nuclear magnetic moments (NMagM)
  in nuclear magnetons)

  Atom         1           2           3           4           5           6           7           8           9          10
 IAtWgt=          12          12          12          12          12          12          12           1           1           1
 AtmWgt=  12.0000000  12.0000000  12.0000000  12.0000000  12.0000000  12.0000000  12.0000000   1.0078250   1.0078250   1.0078250
 NucSpn=           0           0           0           0           0           0           0           1           1           1
 AtZEff=   3.6000000   3.6000000   3.6000000   3.6000000   3.6000000   3.6000000   3.6000000   1.0000000   1.0000000   1.0000000
 NQMom=    0.0000000   0.0000000   0.0000000   0.0000000   0.0000000   0.0000000   0.0000000   0.0000000   0.0000000   0.0000000
 NMagM=    0.0000000   0.0000000   0.0000000   0.0000000   0.0000000   0.0000000   0.0000000   2.7928460   2.7928460   2.7928460
 AtZNuc=   6.0000000   6.0000000   6.0000000   6.0000000   6.0000000   6.0000000   6.0000000   1.0000000   1.0000000   1.0000000

  Atom        11          12          13          14          15          16          17          18          19          20
 IAtWgt=          12          12          12          12          12          12          12           1           1           1
 AtmWgt=  12.0000000  12.0000000  12.0000000  12.0000000  12.0000000  12.0000000  12.0000000   1.0078250   1.0078250   1.0078250
 NucSpn=           0           0           0           0           0           0           0           1           1           1
 AtZEff=   3.6000000   3.6000000   3.6000000   3.6000000   3.6000000   3.6000000   3.6000000   1.0000000   1.0000000   1.0000000
 NQMom=    0.0000000   0.0000000   0.0000000   0.0000000   0.0000000   0.0000000   0.0000000   0.0000000   0.0000000   0.0000000
 NMagM=    0.0000000   0.0000000   0.0000000   0.0000000   0.0000000   0.0000000   0.0000000   2.7928460   2.7928460   2.7928460
 AtZNuc=   6.0000000   6.0000000   6.0000000   6.0000000   6.0000000   6.0000000   6.0000000   1.0000000   1.0000000   1.0000000

  Atom        21          22          23          24          25          26          27          28          29          30
 IAtWgt=          14          12          12          12          12          12          12           1           1          12
 AtmWgt=  14.0030740  12.0000000  12.0000000  12.0000000  12.0000000  12.0000000  12.0000000   1.0078250   1.0078250  12.0000000
 NucSpn=           2           0           0           0           0           0           0           1           1           0
 AtZEff=   4.5500000   3.6000000   3.6000000   3.6000000   3.6000000   3.6000000   3.6000000   1.0000000   1.0000000   3.6000000
 NQMom=    2.0440000   0.0000000   0.0000000   0.0000000   0.0000000   0.0000000   0.0000000   0.0000000   0.0000000   0.0000000
 NMagM=    0.4037610   0.0000000   0.0000000   0.0000000   0.0000000   0.0000000   0.0000000   2.7928460   2.7928460   0.0000000
 AtZNuc=   7.0000000   6.0000000   6.0000000   6.0000000   6.0000000   6.0000000   6.0000000   1.0000000   1.0000000   6.0000000

  Atom        31          32          33          34          35          36          37          38          39          40
 IAtWgt=          12          16          14          14          14          12           1          14          12          12
 AtmWgt=  12.0000000  15.9949146  14.0030740  14.0030740  14.0030740  12.0000000   1.0078250  14.0030740  12.0000000  12.0000000
 NucSpn=           0           0           2           2           2           0           1           2           0           0
 AtZEff=   3.6000000   5.6000000   4.5500000   4.5500000   4.5500000   3.6000000   1.0000000   4.5500000   3.6000000   3.6000000
 NQMom=    0.0000000   0.0000000   2.0440000   2.0440000   2.0440000   0.0000000   0.0000000   2.0440000   0.0000000   0.0000000
 NMagM=    0.0000000   0.0000000   0.4037610   0.4037610   0.4037610   0.0000000   2.7928460   0.4037610   0.0000000   0.0000000
 AtZNuc=   6.0000000   8.0000000   7.0000000   7.0000000   7.0000000   6.0000000   1.0000000   7.0000000   6.0000000   6.0000000

  Atom        41          42          43          44          45          46          47          48          49          50
 IAtWgt=          12           1          12           1           1          12           1           1          12           1
 AtmWgt=  12.0000000   1.0078250  12.0000000   1.0078250   1.0078250  12.0000000   1.0078250   1.0078250  12.0000000   1.0078250
 NucSpn=           0           1           0           1           1           0           1           1           0           1
 AtZEff=   3.6000000   1.0000000   3.6000000   1.0000000   1.0000000   3.6000000   1.0000000   1.0000000   3.6000000   1.0000000
 NQMom=    0.0000000   0.0000000   0.0000000   0.0000000   0.0000000   0.0000000   0.0000000   0.0000000   0.0000000   0.0000000
 NMagM=    0.0000000   2.7928460   0.0000000   2.7928460   2.7928460   0.0000000   2.7928460   2.7928460   0.0000000   2.7928460
 AtZNuc=   6.0000000   1.0000000   6.0000000   1.0000000   1.0000000   6.0000000   1.0000000   1.0000000   6.0000000   1.0000000

  Atom        51          52          53          54          55          56          57          58          59          60
 IAtWgt=           1           1           1           1           1           1           1           1          12           1
 AtmWgt=   1.0078250   1.0078250   1.0078250   1.0078250   1.0078250   1.0078250   1.0078250   1.0078250  12.0000000   1.0078250
 NucSpn=           1           1           1           1           1           1           1           1           0           1
 AtZEff=   1.0000000   1.0000000   1.0000000   1.0000000   1.0000000   1.0000000   1.0000000   1.0000000   3.6000000   1.0000000
 NQMom=    0.0000000   0.0000000   0.0000000   0.0000000   0.0000000   0.0000000   0.0000000   0.0000000   0.0000000   0.0000000
 NMagM=    2.7928460   2.7928460   2.7928460   2.7928460   2.7928460   2.7928460   2.7928460   2.7928460   0.0000000   2.7928460
 AtZNuc=   1.0000000   1.0000000   1.0000000   1.0000000   1.0000000   1.0000000   1.0000000   1.0000000   6.0000000   1.0000000

  Atom        61          62          63          64          65          66          67          68          69          70
 IAtWgt=           1           1          12           1           1           1          12           1           1           1
 AtmWgt=   1.0078250   1.0078250  12.0000000   1.0078250   1.0078250   1.0078250  12.0000000   1.0078250   1.0078250   1.0078250
 NucSpn=           1           1           0           1           1           1           0           1           1           1
 AtZEff=   1.0000000   1.0000000   3.6000000   1.0000000   1.0000000   1.0000000   3.6000000   1.0000000   1.0000000   1.0000000
 NQMom=    0.0000000   0.0000000   0.0000000   0.0000000   0.0000000   0.0000000   0.0000000   0.0000000   0.0000000   0.0000000
 NMagM=    2.7928460   2.7928460   0.0000000   2.7928460   2.7928460   2.7928460   0.0000000   2.7928460   2.7928460   2.7928460
 AtZNuc=   1.0000000   1.0000000   6.0000000   1.0000000   1.0000000   1.0000000   6.0000000   1.0000000   1.0000000   1.0000000

  Atom        71          72          73          74          75          76          77          78          79          80
 IAtWgt=          12           1           1           1          12           1           1           1          12           1
 AtmWgt=  12.0000000   1.0078250   1.0078250   1.0078250  12.0000000   1.0078250   1.0078250   1.0078250  12.0000000   1.0078250
 NucSpn=           0           1           1           1           0           1           1           1           0           1
 AtZEff=   3.6000000   1.0000000   1.0000000   1.0000000   3.6000000   1.0000000   1.0000000   1.0000000   3.6000000   1.0000000
 NQMom=    0.0000000   0.0000000   0.0000000   0.0000000   0.0000000   0.0000000   0.0000000   0.0000000   0.0000000   0.0000000
 NMagM=    0.0000000   2.7928460   2.7928460   2.7928460   0.0000000   2.7928460   2.7928460   2.7928460   0.0000000   2.7928460
 AtZNuc=   6.0000000   1.0000000   1.0000000   1.0000000   6.0000000   1.0000000   1.0000000   1.0000000   6.0000000   1.0000000

  Atom        81          82
 IAtWgt=           1           1
 AtmWgt=   1.0078250   1.0078250
 NucSpn=           1           1
 AtZEff=   1.0000000   1.0000000
 NQMom=    0.0000000   0.0000000
 NMagM=    2.7928460   2.7928460
 AtZNuc=   1.0000000   1.0000000
 Leave Link  101 at Fri Dec 21 18:12:37 2018, MaxMem=  1342177280 cpu:               5.2 elap:               0.3
 (Enter /gpfs/apps/hpc/Apps/Restricted/Gaussian/Rev_A.03/g16/l103.exe)

 GradGradGradGradGradGradGradGradGradGradGradGradGradGradGradGradGradGrad
 Berny optimization.
 Initialization pass.
                           ----------------------------
                           !    Initial Parameters    !
                           ! (Angstroms and Degrees)  !
 --------------------------                            --------------------------
 ! Name  Definition              Value          Derivative Info.                !
 --------------------------------------------------------------------------------
 ! R1    R(1,2)                  1.417          estimate D2E/DX2                !
 ! R2    R(1,6)                  1.4147         estimate D2E/DX2                !
 ! R3    R(1,35)                 1.3714         estimate D2E/DX2                !
 ! R4    R(2,3)                  1.391          estimate D2E/DX2                !
 ! R5    R(2,21)                 1.3767         estimate D2E/DX2                !
 ! R6    R(3,4)                  1.4005         estimate D2E/DX2                !
 ! R7    R(3,8)                  1.0828         estimate D2E/DX2                !
 ! R8    R(4,5)                  1.3966         estimate D2E/DX2                !
 ! R9    R(4,9)                  1.0827         estimate D2E/DX2                !
 ! R10   R(5,6)                  1.4084         estimate D2E/DX2                !
 ! R11   R(5,10)                 1.0836         estimate D2E/DX2                !
 ! R12   R(6,36)                 1.4277         estimate D2E/DX2                !
 ! R13   R(7,16)                 1.4501         estimate D2E/DX2                !
 ! R14   R(7,21)                 1.3669         estimate D2E/DX2                !
 ! R15   R(7,35)                 1.3408         estimate D2E/DX2                !
 ! R16   R(11,12)                1.4192         estimate D2E/DX2                !
 ! R17   R(11,16)                1.4142         estimate D2E/DX2                !
 ! R18   R(11,33)                1.3757         estimate D2E/DX2                !
 ! R19   R(12,13)                1.3947         estimate D2E/DX2                !
 ! R20   R(12,34)                1.3745         estimate D2E/DX2                !
 ! R21   R(13,14)                1.3945         estimate D2E/DX2                !
 ! R22   R(13,18)                1.0827         estimate D2E/DX2                !
 ! R23   R(14,15)                1.4042         estimate D2E/DX2                !
 ! R24   R(14,19)                1.0832         estimate D2E/DX2                !
 ! R25   R(15,16)                1.398          estimate D2E/DX2                !
 ! R26   R(15,20)                1.0826         estimate D2E/DX2                !
 ! R27   R(17,23)                1.4524         estimate D2E/DX2                !
 ! R28   R(17,33)                1.3383         estimate D2E/DX2                !
 ! R29   R(17,34)                1.3682         estimate D2E/DX2                !
 ! R30   R(21,57)                1.02           estimate D2E/DX2                !
 ! R31   R(22,23)                1.4691         estimate D2E/DX2                !
 ! R32   R(22,27)                1.4675         estimate D2E/DX2                !
 ! R33   R(22,32)                1.2601         estimate D2E/DX2                !
 ! R34   R(23,24)                1.3819         estimate D2E/DX2                !
 ! R35   R(24,25)                1.4064         estimate D2E/DX2                !
 ! R36   R(24,28)                1.0826         estimate D2E/DX2                !
 ! R37   R(25,26)                1.415          estimate D2E/DX2                !
 ! R38   R(25,30)                1.5253         estimate D2E/DX2                !
 ! R39   R(26,27)                1.3797         estimate D2E/DX2                !
 ! R40   R(26,29)                1.0788         estimate D2E/DX2                !
 ! R41   R(27,31)                1.5272         estimate D2E/DX2                !
 ! R42   R(30,59)                1.5431         estimate D2E/DX2                !
 ! R43   R(30,63)                1.5345         estimate D2E/DX2                !
 ! R44   R(30,67)                1.5452         estimate D2E/DX2                !
 ! R45   R(31,71)                1.5447         estimate D2E/DX2                !
 ! R46   R(31,75)                1.5363         estimate D2E/DX2                !
 ! R47   R(31,79)                1.5461         estimate D2E/DX2                !
 ! R48   R(34,56)                1.0153         estimate D2E/DX2                !
 ! R49   R(36,37)                1.0852         estimate D2E/DX2                !
 ! R50   R(36,38)                1.2999         estimate D2E/DX2                !
 ! R51   R(38,39)                1.4777         estimate D2E/DX2                !
 ! R52   R(38,58)                1.0269         estimate D2E/DX2                !
 ! R53   R(39,40)                1.5346         estimate D2E/DX2                !
 ! R54   R(39,41)                1.5348         estimate D2E/DX2                !
 ! R55   R(39,42)                1.0914         estimate D2E/DX2                !
 ! R56   R(40,43)                1.5319         estimate D2E/DX2                !
 ! R57   R(40,44)                1.0962         estimate D2E/DX2                !
 ! R58   R(40,45)                1.0929         estimate D2E/DX2                !
 ! R59   R(41,46)                1.5324         estimate D2E/DX2                !
 ! R60   R(41,47)                1.0965         estimate D2E/DX2                !
 ! R61   R(41,48)                1.093          estimate D2E/DX2                !
 ! R62   R(43,49)                1.5322         estimate D2E/DX2                !
 ! R63   R(43,50)                1.0935         estimate D2E/DX2                !
 ! R64   R(43,51)                1.0968         estimate D2E/DX2                !
 ! R65   R(46,49)                1.5318         estimate D2E/DX2                !
 ! R66   R(46,52)                1.0934         estimate D2E/DX2                !
 ! R67   R(46,53)                1.0968         estimate D2E/DX2                !
 ! R68   R(49,54)                1.0937         estimate D2E/DX2                !
 ! R69   R(49,55)                1.0971         estimate D2E/DX2                !
 ! R70   R(59,60)                1.0932         estimate D2E/DX2                !
 ! R71   R(59,61)                1.0922         estimate D2E/DX2                !
 ! R72   R(59,62)                1.0926         estimate D2E/DX2                !
 ! R73   R(63,64)                1.093          estimate D2E/DX2                !
 ! R74   R(63,65)                1.0928         estimate D2E/DX2                !
 ! R75   R(63,66)                1.0923         estimate D2E/DX2                !
 ! R76   R(67,68)                1.0926         estimate D2E/DX2                !
 ! R77   R(67,69)                1.0921         estimate D2E/DX2                !
 ! R78   R(67,70)                1.0932         estimate D2E/DX2                !
 ! R79   R(71,72)                1.0893         estimate D2E/DX2                !
 ! R80   R(71,73)                1.0935         estimate D2E/DX2                !
 ! R81   R(71,74)                1.0932         estimate D2E/DX2                !
 ! R82   R(75,76)                1.093          estimate D2E/DX2                !
 ! R83   R(75,77)                1.0931         estimate D2E/DX2                !
 ! R84   R(75,78)                1.0925         estimate D2E/DX2                !
 ! R85   R(79,80)                1.0936         estimate D2E/DX2                !
 ! R86   R(79,81)                1.0883         estimate D2E/DX2                !
 ! R87   R(79,82)                1.0933         estimate D2E/DX2                !
 ! A1    A(2,1,6)              119.7165         estimate D2E/DX2                !
 ! A2    A(2,1,35)             110.6908         estimate D2E/DX2                !
 ! A3    A(6,1,35)             129.5887         estimate D2E/DX2                !
 ! A4    A(1,2,3)              122.2624         estimate D2E/DX2                !
 ! A5    A(1,2,21)             104.4095         estimate D2E/DX2                !
 ! A6    A(3,2,21)             133.3276         estimate D2E/DX2                !
 ! A7    A(2,3,4)              117.4886         estimate D2E/DX2                !
 ! A8    A(2,3,8)              121.3572         estimate D2E/DX2                !
 ! A9    A(4,3,8)              121.1531         estimate D2E/DX2                !
 ! A10   A(3,4,5)              121.4388         estimate D2E/DX2                !
 ! A11   A(3,4,9)              119.2572         estimate D2E/DX2                !
 ! A12   A(5,4,9)              119.3034         estimate D2E/DX2                !
 ! A13   A(4,5,6)              121.4188         estimate D2E/DX2                !
 ! A14   A(4,5,10)             119.7734         estimate D2E/DX2                !
 ! A15   A(6,5,10)             118.8074         estimate D2E/DX2                !
 ! A16   A(1,6,5)              117.6733         estimate D2E/DX2                !
 ! A17   A(1,6,36)             121.9974         estimate D2E/DX2                !
 ! A18   A(5,6,36)             120.3293         estimate D2E/DX2                !
 ! A19   A(16,7,21)            121.5097         estimate D2E/DX2                !
 ! A20   A(16,7,35)            126.4961         estimate D2E/DX2                !
 ! A21   A(21,7,35)            111.9873         estimate D2E/DX2                !
 ! A22   A(12,11,16)           119.9589         estimate D2E/DX2                !
 ! A23   A(12,11,33)           110.2326         estimate D2E/DX2                !
 ! A24   A(16,11,33)           129.8058         estimate D2E/DX2                !
 ! A25   A(11,12,13)           122.3998         estimate D2E/DX2                !
 ! A26   A(11,12,34)           104.5465         estimate D2E/DX2                !
 ! A27   A(13,12,34)           133.0534         estimate D2E/DX2                !
 ! A28   A(12,13,14)           116.8023         estimate D2E/DX2                !
 ! A29   A(12,13,18)           121.6441         estimate D2E/DX2                !
 ! A30   A(14,13,18)           121.5535         estimate D2E/DX2                !
 ! A31   A(13,14,15)           121.8656         estimate D2E/DX2                !
 ! A32   A(13,14,19)           119.2072         estimate D2E/DX2                !
 ! A33   A(15,14,19)           118.926          estimate D2E/DX2                !
 ! A34   A(14,15,16)           121.6144         estimate D2E/DX2                !
 ! A35   A(14,15,20)           119.7698         estimate D2E/DX2                !
 ! A36   A(16,15,20)           118.6153         estimate D2E/DX2                !
 ! A37   A(7,16,11)            120.793          estimate D2E/DX2                !
 ! A38   A(7,16,15)            121.8453         estimate D2E/DX2                !
 ! A39   A(11,16,15)           117.3475         estimate D2E/DX2                !
 ! A40   A(23,17,33)           124.7472         estimate D2E/DX2                !
 ! A41   A(23,17,34)           123.5018         estimate D2E/DX2                !
 ! A42   A(33,17,34)           111.75           estimate D2E/DX2                !
 ! A43   A(2,21,7)             107.9361         estimate D2E/DX2                !
 ! A44   A(2,21,57)            129.9817         estimate D2E/DX2                !
 ! A45   A(7,21,57)            122.082          estimate D2E/DX2                !
 ! A46   A(23,22,27)           117.7393         estimate D2E/DX2                !
 ! A47   A(23,22,32)           120.4886         estimate D2E/DX2                !
 ! A48   A(27,22,32)           121.7721         estimate D2E/DX2                !
 ! A49   A(17,23,22)           120.4689         estimate D2E/DX2                !
 ! A50   A(17,23,24)           119.251          estimate D2E/DX2                !
 ! A51   A(22,23,24)           120.2797         estimate D2E/DX2                !
 ! A52   A(23,24,25)           121.5775         estimate D2E/DX2                !
 ! A53   A(23,24,28)           118.3235         estimate D2E/DX2                !
 ! A54   A(25,24,28)           120.094          estimate D2E/DX2                !
 ! A55   A(24,25,26)           118.5113         estimate D2E/DX2                !
 ! A56   A(24,25,30)           119.2573         estimate D2E/DX2                !
 ! A57   A(26,25,30)           122.2086         estimate D2E/DX2                !
 ! A58   A(25,26,27)           123.5891         estimate D2E/DX2                !
 ! A59   A(25,26,29)           117.7876         estimate D2E/DX2                !
 ! A60   A(27,26,29)           118.6217         estimate D2E/DX2                !
 ! A61   A(22,27,26)           118.2783         estimate D2E/DX2                !
 ! A62   A(22,27,31)           119.8075         estimate D2E/DX2                !
 ! A63   A(26,27,31)           121.9137         estimate D2E/DX2                !
 ! A64   A(25,30,59)           109.5704         estimate D2E/DX2                !
 ! A65   A(25,30,63)           112.556          estimate D2E/DX2                !
 ! A66   A(25,30,67)           108.0783         estimate D2E/DX2                !
 ! A67   A(59,30,63)           108.6949         estimate D2E/DX2                !
 ! A68   A(59,30,67)           109.1758         estimate D2E/DX2                !
 ! A69   A(63,30,67)           108.7135         estimate D2E/DX2                !
 ! A70   A(27,31,71)           109.4037         estimate D2E/DX2                !
 ! A71   A(27,31,75)           111.8198         estimate D2E/DX2                !
 ! A72   A(27,31,79)           109.931          estimate D2E/DX2                !
 ! A73   A(71,31,75)           108.1436         estimate D2E/DX2                !
 ! A74   A(71,31,79)           109.8769         estimate D2E/DX2                !
 ! A75   A(75,31,79)           107.6255         estimate D2E/DX2                !
 ! A76   A(11,33,17)           105.3356         estimate D2E/DX2                !
 ! A77   A(12,34,17)           108.1335         estimate D2E/DX2                !
 ! A78   A(12,34,56)           130.657          estimate D2E/DX2                !
 ! A79   A(17,34,56)           121.1133         estimate D2E/DX2                !
 ! A80   A(1,35,7)             104.9746         estimate D2E/DX2                !
 ! A81   A(6,36,37)            118.9879         estimate D2E/DX2                !
 ! A82   A(6,36,38)            123.5115         estimate D2E/DX2                !
 ! A83   A(37,36,38)           117.4999         estimate D2E/DX2                !
 ! A84   A(36,38,39)           124.1944         estimate D2E/DX2                !
 ! A85   A(36,38,58)           116.374          estimate D2E/DX2                !
 ! A86   A(39,38,58)           119.4306         estimate D2E/DX2                !
 ! A87   A(38,39,40)           110.6415         estimate D2E/DX2                !
 ! A88   A(38,39,41)           110.7851         estimate D2E/DX2                !
 ! A89   A(38,39,42)           105.1169         estimate D2E/DX2                !
 ! A90   A(40,39,41)           111.6529         estimate D2E/DX2                !
 ! A91   A(40,39,42)           109.2569         estimate D2E/DX2                !
 ! A92   A(41,39,42)           109.1619         estimate D2E/DX2                !
 ! A93   A(39,40,43)           110.7525         estimate D2E/DX2                !
 ! A94   A(39,40,44)           108.5939         estimate D2E/DX2                !
 ! A95   A(39,40,45)           109.5199         estimate D2E/DX2                !
 ! A96   A(43,40,44)           109.3742         estimate D2E/DX2                !
 ! A97   A(43,40,45)           111.1099         estimate D2E/DX2                !
 ! A98   A(44,40,45)           107.3969         estimate D2E/DX2                !
 ! A99   A(39,41,46)           110.7106         estimate D2E/DX2                !
 ! A100  A(39,41,47)           108.5711         estimate D2E/DX2                !
 ! A101  A(39,41,48)           109.5739         estimate D2E/DX2                !
 ! A102  A(46,41,47)           109.4875         estimate D2E/DX2                !
 ! A103  A(46,41,48)           111.0137         estimate D2E/DX2                !
 ! A104  A(47,41,48)           107.3935         estimate D2E/DX2                !
 ! A105  A(40,43,49)           111.382          estimate D2E/DX2                !
 ! A106  A(40,43,50)           109.316          estimate D2E/DX2                !
 ! A107  A(40,43,51)           109.238          estimate D2E/DX2                !
 ! A108  A(49,43,50)           110.7449         estimate D2E/DX2                !
 ! A109  A(49,43,51)           109.2219         estimate D2E/DX2                !
 ! A110  A(50,43,51)           106.8202         estimate D2E/DX2                !
 ! A111  A(41,46,49)           111.3756         estimate D2E/DX2                !
 ! A112  A(41,46,52)           109.3867         estimate D2E/DX2                !
 ! A113  A(41,46,53)           109.1975         estimate D2E/DX2                !
 ! A114  A(49,46,52)           110.7257         estimate D2E/DX2                !
 ! A115  A(49,46,53)           109.212          estimate D2E/DX2                !
 ! A116  A(52,46,53)           106.8251         estimate D2E/DX2                !
 ! A117  A(43,49,46)           110.8524         estimate D2E/DX2                !
 ! A118  A(43,49,54)           110.1865         estimate D2E/DX2                !
 ! A119  A(43,49,55)           109.2406         estimate D2E/DX2                !
 ! A120  A(46,49,54)           110.2248         estimate D2E/DX2                !
 ! A121  A(46,49,55)           109.2939         estimate D2E/DX2                !
 ! A122  A(54,49,55)           106.9525         estimate D2E/DX2                !
 ! A123  A(30,59,60)           109.4121         estimate D2E/DX2                !
 ! A124  A(30,59,61)           111.7043         estimate D2E/DX2                !
 ! A125  A(30,59,62)           110.9231         estimate D2E/DX2                !
 ! A126  A(60,59,61)           107.9221         estimate D2E/DX2                !
 ! A127  A(60,59,62)           108.3537         estimate D2E/DX2                !
 ! A128  A(61,59,62)           108.4198         estimate D2E/DX2                !
 ! A129  A(30,63,64)           111.6101         estimate D2E/DX2                !
 ! A130  A(30,63,65)           111.7286         estimate D2E/DX2                !
 ! A131  A(30,63,66)           109.2614         estimate D2E/DX2                !
 ! A132  A(64,63,65)           108.3537         estimate D2E/DX2                !
 ! A133  A(64,63,66)           108.0076         estimate D2E/DX2                !
 ! A134  A(65,63,66)           107.7351         estimate D2E/DX2                !
 ! A135  A(30,67,68)           110.7913         estimate D2E/DX2                !
 ! A136  A(30,67,69)           111.4262         estimate D2E/DX2                !
 ! A137  A(30,67,70)           109.7327         estimate D2E/DX2                !
 ! A138  A(68,67,69)           108.1738         estimate D2E/DX2                !
 ! A139  A(68,67,70)           108.3886         estimate D2E/DX2                !
 ! A140  A(69,67,70)           108.236          estimate D2E/DX2                !
 ! A141  A(31,71,72)           111.1031         estimate D2E/DX2                !
 ! A142  A(31,71,73)           109.4694         estimate D2E/DX2                !
 ! A143  A(31,71,74)           110.5874         estimate D2E/DX2                !
 ! A144  A(72,71,73)           108.7849         estimate D2E/DX2                !
 ! A145  A(72,71,74)           108.7079         estimate D2E/DX2                !
 ! A146  A(73,71,74)           108.1177         estimate D2E/DX2                !
 ! A147  A(31,75,76)           111.688          estimate D2E/DX2                !
 ! A148  A(31,75,77)           112.0656         estimate D2E/DX2                !
 ! A149  A(31,75,78)           108.8646         estimate D2E/DX2                !
 ! A150  A(76,75,77)           108.3199         estimate D2E/DX2                !
 ! A151  A(76,75,78)           108.0118         estimate D2E/DX2                !
 ! A152  A(77,75,78)           107.7364         estimate D2E/DX2                !
 ! A153  A(31,79,80)           109.1816         estimate D2E/DX2                !
 ! A154  A(31,79,81)           111.2979         estimate D2E/DX2                !
 ! A155  A(31,79,82)           110.4593         estimate D2E/DX2                !
 ! A156  A(80,79,81)           108.9218         estimate D2E/DX2                !
 ! A157  A(80,79,82)           108.057          estimate D2E/DX2                !
 ! A158  A(81,79,82)           108.8518         estimate D2E/DX2                !
 ! D1    D(6,1,2,3)             -0.2242         estimate D2E/DX2                !
 ! D2    D(6,1,2,21)           179.5562         estimate D2E/DX2                !
 ! D3    D(35,1,2,3)          -179.5632         estimate D2E/DX2                !
 ! D4    D(35,1,2,21)            0.2172         estimate D2E/DX2                !
 ! D5    D(2,1,6,5)              0.3183         estimate D2E/DX2                !
 ! D6    D(2,1,6,36)          -179.6445         estimate D2E/DX2                !
 ! D7    D(35,1,6,5)           179.5158         estimate D2E/DX2                !
 ! D8    D(35,1,6,36)           -0.447          estimate D2E/DX2                !
 ! D9    D(2,1,35,7)             0.0328         estimate D2E/DX2                !
 ! D10   D(6,1,35,7)          -179.2222         estimate D2E/DX2                !
 ! D11   D(1,2,3,4)              0.2027         estimate D2E/DX2                !
 ! D12   D(1,2,3,8)            179.823          estimate D2E/DX2                !
 ! D13   D(21,2,3,4)          -179.505          estimate D2E/DX2                !
 ! D14   D(21,2,3,8)             0.1154         estimate D2E/DX2                !
 ! D15   D(1,2,21,7)            -0.3776         estimate D2E/DX2                !
 ! D16   D(1,2,21,57)          179.467          estimate D2E/DX2                !
 ! D17   D(3,2,21,7)           179.3672         estimate D2E/DX2                !
 ! D18   D(3,2,21,57)           -0.7883         estimate D2E/DX2                !
 ! D19   D(2,3,4,5)             -0.2936         estimate D2E/DX2                !
 ! D20   D(2,3,4,9)            179.996          estimate D2E/DX2                !
 ! D21   D(8,3,4,5)           -179.9147         estimate D2E/DX2                !
 ! D22   D(8,3,4,9)              0.3749         estimate D2E/DX2                !
 ! D23   D(3,4,5,6)              0.4137         estimate D2E/DX2                !
 ! D24   D(3,4,5,10)          -179.8292         estimate D2E/DX2                !
 ! D25   D(9,4,5,6)           -179.876          estimate D2E/DX2                !
 ! D26   D(9,4,5,10)            -0.1189         estimate D2E/DX2                !
 ! D27   D(4,5,6,1)             -0.4155         estimate D2E/DX2                !
 ! D28   D(4,5,6,36)           179.548          estimate D2E/DX2                !
 ! D29   D(10,5,6,1)           179.825          estimate D2E/DX2                !
 ! D30   D(10,5,6,36)           -0.2115         estimate D2E/DX2                !
 ! D31   D(1,6,36,37)         -179.5595         estimate D2E/DX2                !
 ! D32   D(1,6,36,38)            0.7567         estimate D2E/DX2                !
 ! D33   D(5,6,36,37)            0.4787         estimate D2E/DX2                !
 ! D34   D(5,6,36,38)         -179.2052         estimate D2E/DX2                !
 ! D35   D(21,7,16,11)          -1.0856         estimate D2E/DX2                !
 ! D36   D(21,7,16,15)         177.5077         estimate D2E/DX2                !
 ! D37   D(35,7,16,11)         179.9453         estimate D2E/DX2                !
 ! D38   D(35,7,16,15)          -1.4615         estimate D2E/DX2                !
 ! D39   D(16,7,21,2)         -178.6742         estimate D2E/DX2                !
 ! D40   D(16,7,21,57)           1.4664         estimate D2E/DX2                !
 ! D41   D(35,7,21,2)            0.4321         estimate D2E/DX2                !
 ! D42   D(35,7,21,57)        -179.4273         estimate D2E/DX2                !
 ! D43   D(16,7,35,1)          178.7689         estimate D2E/DX2                !
 ! D44   D(21,7,35,1)           -0.2834         estimate D2E/DX2                !
 ! D45   D(16,11,12,13)          1.1393         estimate D2E/DX2                !
 ! D46   D(16,11,12,34)       -179.0235         estimate D2E/DX2                !
 ! D47   D(33,11,12,13)       -179.4079         estimate D2E/DX2                !
 ! D48   D(33,11,12,34)          0.4293         estimate D2E/DX2                !
 ! D49   D(12,11,16,7)         177.7027         estimate D2E/DX2                !
 ! D50   D(12,11,16,15)         -0.9519         estimate D2E/DX2                !
 ! D51   D(33,11,16,7)          -1.6289         estimate D2E/DX2                !
 ! D52   D(33,11,16,15)        179.7164         estimate D2E/DX2                !
 ! D53   D(12,11,33,17)         -0.415          estimate D2E/DX2                !
 ! D54   D(16,11,33,17)        178.9679         estimate D2E/DX2                !
 ! D55   D(11,12,13,14)         -0.3609         estimate D2E/DX2                !
 ! D56   D(11,12,13,18)        179.7479         estimate D2E/DX2                !
 ! D57   D(34,12,13,14)        179.8547         estimate D2E/DX2                !
 ! D58   D(34,12,13,18)         -0.0365         estimate D2E/DX2                !
 ! D59   D(11,12,34,17)         -0.2713         estimate D2E/DX2                !
 ! D60   D(11,12,34,56)        176.1098         estimate D2E/DX2                !
 ! D61   D(13,12,34,17)        179.5406         estimate D2E/DX2                !
 ! D62   D(13,12,34,56)         -4.0783         estimate D2E/DX2                !
 ! D63   D(12,13,14,15)         -0.5637         estimate D2E/DX2                !
 ! D64   D(12,13,14,19)        179.8484         estimate D2E/DX2                !
 ! D65   D(18,13,14,15)        179.3276         estimate D2E/DX2                !
 ! D66   D(18,13,14,19)         -0.2603         estimate D2E/DX2                !
 ! D67   D(13,14,15,16)          0.7275         estimate D2E/DX2                !
 ! D68   D(13,14,15,20)       -178.9935         estimate D2E/DX2                !
 ! D69   D(19,14,15,16)       -179.6835         estimate D2E/DX2                !
 ! D70   D(19,14,15,20)          0.5954         estimate D2E/DX2                !
 ! D71   D(14,15,16,7)        -178.5809         estimate D2E/DX2                !
 ! D72   D(14,15,16,11)          0.0587         estimate D2E/DX2                !
 ! D73   D(20,15,16,7)           1.1433         estimate D2E/DX2                !
 ! D74   D(20,15,16,11)        179.7829         estimate D2E/DX2                !
 ! D75   D(33,17,23,22)        172.3975         estimate D2E/DX2                !
 ! D76   D(33,17,23,24)         -7.7921         estimate D2E/DX2                !
 ! D77   D(34,17,23,22)         -7.9958         estimate D2E/DX2                !
 ! D78   D(34,17,23,24)        171.8145         estimate D2E/DX2                !
 ! D79   D(23,17,33,11)        179.8883         estimate D2E/DX2                !
 ! D80   D(34,17,33,11)          0.2414         estimate D2E/DX2                !
 ! D81   D(23,17,34,12)       -179.6267         estimate D2E/DX2                !
 ! D82   D(23,17,34,56)          3.5795         estimate D2E/DX2                !
 ! D83   D(33,17,34,12)          0.0253         estimate D2E/DX2                !
 ! D84   D(33,17,34,56)       -176.7685         estimate D2E/DX2                !
 ! D85   D(27,22,23,17)       -178.6279         estimate D2E/DX2                !
 ! D86   D(27,22,23,24)          1.5637         estimate D2E/DX2                !
 ! D87   D(32,22,23,17)          1.2984         estimate D2E/DX2                !
 ! D88   D(32,22,23,24)       -178.51           estimate D2E/DX2                !
 ! D89   D(23,22,27,26)         -1.2618         estimate D2E/DX2                !
 ! D90   D(23,22,27,31)        178.9797         estimate D2E/DX2                !
 ! D91   D(32,22,27,26)        178.8129         estimate D2E/DX2                !
 ! D92   D(32,22,27,31)         -0.9456         estimate D2E/DX2                !
 ! D93   D(17,23,24,25)        179.7015         estimate D2E/DX2                !
 ! D94   D(17,23,24,28)         -1.1086         estimate D2E/DX2                !
 ! D95   D(22,23,24,25)         -0.4878         estimate D2E/DX2                !
 ! D96   D(22,23,24,28)        178.7021         estimate D2E/DX2                !
 ! D97   D(23,24,25,26)         -0.8879         estimate D2E/DX2                !
 ! D98   D(23,24,25,30)        177.4139         estimate D2E/DX2                !
 ! D99   D(28,24,25,26)        179.9363         estimate D2E/DX2                !
 ! D100  D(28,24,25,30)         -1.7619         estimate D2E/DX2                !
 ! D101  D(24,25,26,27)          1.2026         estimate D2E/DX2                !
 ! D102  D(24,25,26,29)       -179.2719         estimate D2E/DX2                !
 ! D103  D(30,25,26,27)       -177.0464         estimate D2E/DX2                !
 ! D104  D(30,25,26,29)          2.4791         estimate D2E/DX2                !
 ! D105  D(24,25,30,59)         55.4293         estimate D2E/DX2                !
 ! D106  D(24,25,30,63)        176.495          estimate D2E/DX2                !
 ! D107  D(24,25,30,67)        -63.4362         estimate D2E/DX2                !
 ! D108  D(26,25,30,59)       -126.3343         estimate D2E/DX2                !
 ! D109  D(26,25,30,63)         -5.2686         estimate D2E/DX2                !
 ! D110  D(26,25,30,67)        114.8002         estimate D2E/DX2                !
 ! D111  D(25,26,27,22)         -0.0959         estimate D2E/DX2                !
 ! D112  D(25,26,27,31)        179.6572         estimate D2E/DX2                !
 ! D113  D(29,26,27,22)       -179.6178         estimate D2E/DX2                !
 ! D114  D(29,26,27,31)          0.1354         estimate D2E/DX2                !
 ! D115  D(22,27,31,71)        -61.0668         estimate D2E/DX2                !
 ! D116  D(22,27,31,75)        179.1544         estimate D2E/DX2                !
 ! D117  D(22,27,31,79)         59.6745         estimate D2E/DX2                !
 ! D118  D(26,27,31,71)        119.1838         estimate D2E/DX2                !
 ! D119  D(26,27,31,75)         -0.595          estimate D2E/DX2                !
 ! D120  D(26,27,31,79)       -120.0749         estimate D2E/DX2                !
 ! D121  D(25,30,59,60)       -178.7466         estimate D2E/DX2                !
 ! D122  D(25,30,59,61)        -59.3119         estimate D2E/DX2                !
 ! D123  D(25,30,59,62)         61.7708         estimate D2E/DX2                !
 ! D124  D(63,30,59,60)         57.8811         estimate D2E/DX2                !
 ! D125  D(63,30,59,61)        177.3158         estimate D2E/DX2                !
 ! D126  D(63,30,59,62)        -61.6015         estimate D2E/DX2                !
 ! D127  D(67,30,59,60)        -60.5617         estimate D2E/DX2                !
 ! D128  D(67,30,59,61)         58.873          estimate D2E/DX2                !
 ! D129  D(67,30,59,62)        179.9557         estimate D2E/DX2                !
 ! D130  D(25,30,63,64)        -60.321          estimate D2E/DX2                !
 ! D131  D(25,30,63,65)         61.1766         estimate D2E/DX2                !
 ! D132  D(25,30,63,66)       -179.7047         estimate D2E/DX2                !
 ! D133  D(59,30,63,64)         61.244          estimate D2E/DX2                !
 ! D134  D(59,30,63,65)       -177.2585         estimate D2E/DX2                !
 ! D135  D(59,30,63,66)        -58.1397         estimate D2E/DX2                !
 ! D136  D(67,30,63,64)        179.9779         estimate D2E/DX2                !
 ! D137  D(67,30,63,65)        -58.5246         estimate D2E/DX2                !
 ! D138  D(67,30,63,66)         60.5942         estimate D2E/DX2                !
 ! D139  D(25,30,67,68)        -61.3026         estimate D2E/DX2                !
 ! D140  D(25,30,67,69)         59.188          estimate D2E/DX2                !
 ! D141  D(25,30,67,70)        179.0489         estimate D2E/DX2                !
 ! D142  D(59,30,67,68)        179.5815         estimate D2E/DX2                !
 ! D143  D(59,30,67,69)        -59.928          estimate D2E/DX2                !
 ! D144  D(59,30,67,70)         59.9329         estimate D2E/DX2                !
 ! D145  D(63,30,67,68)         61.1503         estimate D2E/DX2                !
 ! D146  D(63,30,67,69)       -178.3592         estimate D2E/DX2                !
 ! D147  D(63,30,67,70)        -58.4982         estimate D2E/DX2                !
 ! D148  D(27,31,71,72)         60.0672         estimate D2E/DX2                !
 ! D149  D(27,31,71,73)       -179.7651         estimate D2E/DX2                !
 ! D150  D(27,31,71,74)        -60.7447         estimate D2E/DX2                !
 ! D151  D(75,31,71,72)       -177.9197         estimate D2E/DX2                !
 ! D152  D(75,31,71,73)        -57.752          estimate D2E/DX2                !
 ! D153  D(75,31,71,74)         61.2684         estimate D2E/DX2                !
 ! D154  D(79,31,71,72)        -60.707          estimate D2E/DX2                !
 ! D155  D(79,31,71,73)         59.4607         estimate D2E/DX2                !
 ! D156  D(79,31,71,74)        178.4812         estimate D2E/DX2                !
 ! D157  D(27,31,75,76)        -60.3946         estimate D2E/DX2                !
 ! D158  D(27,31,75,77)         61.3556         estimate D2E/DX2                !
 ! D159  D(27,31,75,78)       -179.5743         estimate D2E/DX2                !
 ! D160  D(71,31,75,76)        179.0891         estimate D2E/DX2                !
 ! D161  D(71,31,75,77)        -59.1607         estimate D2E/DX2                !
 ! D162  D(71,31,75,78)         59.9094         estimate D2E/DX2                !
 ! D163  D(79,31,75,76)         60.4347         estimate D2E/DX2                !
 ! D164  D(79,31,75,77)       -177.8151         estimate D2E/DX2                !
 ! D165  D(79,31,75,78)        -58.745          estimate D2E/DX2                !
 ! D166  D(27,31,79,80)        179.6003         estimate D2E/DX2                !
 ! D167  D(27,31,79,81)        -60.1265         estimate D2E/DX2                !
 ! D168  D(27,31,79,82)         60.9108         estimate D2E/DX2                !
 ! D169  D(71,31,79,80)        -59.944          estimate D2E/DX2                !
 ! D170  D(71,31,79,81)         60.3292         estimate D2E/DX2                !
 ! D171  D(71,31,79,82)       -178.6335         estimate D2E/DX2                !
 ! D172  D(75,31,79,80)         57.5917         estimate D2E/DX2                !
 ! D173  D(75,31,79,81)        177.8649         estimate D2E/DX2                !
 ! D174  D(75,31,79,82)        -61.0978         estimate D2E/DX2                !
 ! D175  D(6,36,38,39)         179.5688         estimate D2E/DX2                !
 ! D176  D(6,36,38,58)          -0.0662         estimate D2E/DX2                !
 ! D177  D(37,36,38,39)         -0.1194         estimate D2E/DX2                !
 ! D178  D(37,36,38,58)       -179.7545         estimate D2E/DX2                !
 ! D179  D(36,38,39,40)        -61.5021         estimate D2E/DX2                !
 ! D180  D(36,38,39,41)         62.8812         estimate D2E/DX2                !
 ! D181  D(36,38,39,42)       -179.3304         estimate D2E/DX2                !
 ! D182  D(58,38,39,40)        118.1225         estimate D2E/DX2                !
 ! D183  D(58,38,39,41)       -117.4942         estimate D2E/DX2                !
 ! D184  D(58,38,39,42)          0.2942         estimate D2E/DX2                !
 ! D185  D(38,39,40,43)        179.2829         estimate D2E/DX2                !
 ! D186  D(38,39,40,44)         59.1661         estimate D2E/DX2                !
 ! D187  D(38,39,40,45)        -57.8316         estimate D2E/DX2                !
 ! D188  D(41,39,40,43)         55.3966         estimate D2E/DX2                !
 ! D189  D(41,39,40,44)        -64.7202         estimate D2E/DX2                !
 ! D190  D(41,39,40,45)        178.2821         estimate D2E/DX2                !
 ! D191  D(42,39,40,43)        -65.4526         estimate D2E/DX2                !
 ! D192  D(42,39,40,44)        174.4307         estimate D2E/DX2                !
 ! D193  D(42,39,40,45)         57.4329         estimate D2E/DX2                !
 ! D194  D(38,39,41,46)       -179.2144         estimate D2E/DX2                !
 ! D195  D(38,39,41,47)        -58.9981         estimate D2E/DX2                !
 ! D196  D(38,39,41,48)         58.0126         estimate D2E/DX2                !
 ! D197  D(40,39,41,46)        -55.409          estimate D2E/DX2                !
 ! D198  D(40,39,41,47)         64.8072         estimate D2E/DX2                !
 ! D199  D(40,39,41,48)       -178.182          estimate D2E/DX2                !
 ! D200  D(42,39,41,46)         65.4955         estimate D2E/DX2                !
 ! D201  D(42,39,41,47)       -174.2882         estimate D2E/DX2                !
 ! D202  D(42,39,41,48)        -57.2775         estimate D2E/DX2                !
 ! D203  D(39,40,43,49)        -55.6127         estimate D2E/DX2                !
 ! D204  D(39,40,43,50)       -178.3179         estimate D2E/DX2                !
 ! D205  D(39,40,43,51)         65.1252         estimate D2E/DX2                !
 ! D206  D(44,40,43,49)         64.0369         estimate D2E/DX2                !
 ! D207  D(44,40,43,50)        -58.6683         estimate D2E/DX2                !
 ! D208  D(44,40,43,51)       -175.2251         estimate D2E/DX2                !
 ! D209  D(45,40,43,49)       -177.5714         estimate D2E/DX2                !
 ! D210  D(45,40,43,50)         59.7234         estimate D2E/DX2                !
 ! D211  D(45,40,43,51)        -56.8335         estimate D2E/DX2                !
 ! D212  D(39,41,46,49)         55.6673         estimate D2E/DX2                !
 ! D213  D(39,41,46,52)        178.3927         estimate D2E/DX2                !
 ! D214  D(39,41,46,53)        -65.0274         estimate D2E/DX2                !
 ! D215  D(47,41,46,49)        -64.0002         estimate D2E/DX2                !
 ! D216  D(47,41,46,52)         58.7253         estimate D2E/DX2                !
 ! D217  D(47,41,46,53)        175.3051         estimate D2E/DX2                !
 ! D218  D(48,41,46,49)        177.5998         estimate D2E/DX2                !
 ! D219  D(48,41,46,52)        -59.6747         estimate D2E/DX2                !
 ! D220  D(48,41,46,53)         56.9051         estimate D2E/DX2                !
 ! D221  D(40,43,49,46)         56.0816         estimate D2E/DX2                !
 ! D222  D(40,43,49,54)        178.3707         estimate D2E/DX2                !
 ! D223  D(40,43,49,55)        -64.412          estimate D2E/DX2                !
 ! D224  D(50,43,49,46)        177.9625         estimate D2E/DX2                !
 ! D225  D(50,43,49,54)        -59.7484         estimate D2E/DX2                !
 ! D226  D(50,43,49,55)         57.4689         estimate D2E/DX2                !
 ! D227  D(51,43,49,46)        -64.6658         estimate D2E/DX2                !
 ! D228  D(51,43,49,54)         57.6233         estimate D2E/DX2                !
 ! D229  D(51,43,49,55)        174.8406         estimate D2E/DX2                !
 ! D230  D(41,46,49,43)        -56.1143         estimate D2E/DX2                !
 ! D231  D(41,46,49,54)       -178.3812         estimate D2E/DX2                !
 ! D232  D(41,46,49,55)         64.3475         estimate D2E/DX2                !
 ! D233  D(52,46,49,43)       -178.0677         estimate D2E/DX2                !
 ! D234  D(52,46,49,54)         59.6655         estimate D2E/DX2                !
 ! D235  D(52,46,49,55)        -57.6058         estimate D2E/DX2                !
 ! D236  D(53,46,49,43)         64.5719         estimate D2E/DX2                !
 ! D237  D(53,46,49,54)        -57.695          estimate D2E/DX2                !
 ! D238  D(53,46,49,55)       -174.9663         estimate D2E/DX2                !
 --------------------------------------------------------------------------------
 Trust Radius=3.00D-01 FncErr=1.00D-07 GrdErr=1.00D-07 EigMax=2.50D+02 EigMin=1.00D-04
 Number of steps in this run=    492 maximum allowed number of steps=    492.
 GradGradGradGradGradGradGradGradGradGradGradGradGradGradGradGradGradGrad

 Leave Link  103 at Fri Dec 21 18:12:37 2018, MaxMem=  1342177280 cpu:               0.5 elap:               0.1
 (Enter /gpfs/apps/hpc/Apps/Restricted/Gaussian/Rev_A.03/g16/l202.exe)
 Symmetry turned off by external request.
 Stoichiometry    C35H41N5O(1+,2)
 Framework group  C1[X(C35H41N5O)]
 Deg. of freedom   240
 Full point group                 C1      NOp   1
                          Input orientation:                          
 ---------------------------------------------------------------------
 Center     Atomic      Atomic             Coordinates (Angstroms)
 Number     Number       Type             X           Y           Z
 ---------------------------------------------------------------------
      1          6           0        1.515357    1.140998   -0.113375
      2          6           0        0.308673    1.872680   -0.241594
      3          6           0        0.292942    3.245087   -0.467487
      4          6           0        1.527908    3.897325   -0.571223
      5          6           0        2.732150    3.201040   -0.446946
      6          6           0        2.756622    1.811201   -0.220445
      7          6           0       -0.081832   -0.285406    0.094216
      8          1           0       -0.637967    3.789279   -0.565962
      9          1           0        1.549083    4.965497   -0.747010
     10          1           0        3.672401    3.733311   -0.529121
     11          6           0       -2.272992   -1.460771    0.234428
     12          6           0       -3.016043   -2.665142    0.341462
     13          6           0       -2.404517   -3.909929    0.489163
     14          6           0       -1.010435   -3.925905    0.520427
     15          6           0       -0.252675   -2.750184    0.397408
     16          6           0       -0.859411   -1.499147    0.251958
     17          6           0       -4.356214   -0.906714    0.132121
     18          1           0       -2.983627   -4.820872    0.573741
     19          1           0       -0.495114   -4.871656    0.636236
     20          1           0        0.828555   -2.803754    0.409898
     21          7           0       -0.681957    0.927611   -0.097725
     22          6           0       -6.879499   -0.810955   -0.103068
     23          6           0       -5.582276   -0.134692    0.031679
     24          6           0       -5.516293    1.245149    0.068201
     25          6           0       -6.671872    2.040615   -0.031255
     26          6           0       -7.922482    1.398102   -0.190796
     27          6           0       -8.076947    0.027657   -0.230796
     28          1           0       -4.546112    1.709954    0.189757
     29          1           0       -8.799787    2.019769   -0.277898
     30          6           0       -6.544524    3.556888    0.074777
     31          6           0       -9.447257   -0.625856   -0.397001
     32          8           0       -6.946999   -2.069191   -0.108687
     33          7           0       -3.123378   -0.386420    0.111698
     34          7           0       -4.329869   -2.267896    0.268065
     35          7           0        1.255571   -0.189484    0.093918
     36          6           0        4.001304    1.121071   -0.106654
     37          1           0        4.924805    1.684958   -0.189515
     38          7           0        4.096070   -0.160800    0.087095
     39          6           0        5.375658   -0.891611    0.197985
     40          6           0        6.187284   -0.761060   -1.097890
     41          6           0        6.174028   -0.410074    1.417200
     42          1           0        5.095126   -1.936276    0.343303
     43          6           0        7.522237   -1.502980   -0.979322
     44          1           0        6.377508    0.302025   -1.285565
     45          1           0        5.599050   -1.140875   -1.937030
     46          6           0        7.509154   -1.155238    1.519466
     47          1           0        6.362323    0.664684    1.309027
     48          1           0        5.577949   -0.547807    2.322882
     49          6           0        8.326027   -1.016644    0.231031
     50          1           0        8.093280   -1.369857   -1.902371
     51          1           0        7.330377   -2.578034   -0.877054
     52          1           0        8.071669   -0.776056    2.376925
     53          1           0        7.315477   -2.217573    1.711498
     54          1           0        9.260827   -1.578396    0.313730
     55          1           0        8.597413    0.036372    0.085366
     56          1           0       -5.185939   -2.813474    0.251305
     57          1           0       -1.696305    1.033360   -0.116055
     58          1           0        3.211821   -0.677874    0.158998
     59          6           0       -5.535374    4.065575   -0.975956
     60          1           0       -5.429324    5.149627   -0.882881
     61          1           0       -4.548559    3.618252   -0.837955
     62          1           0       -5.878587    3.839113   -1.988264
     63          6           0       -7.882798    4.276424   -0.139841
     64          1           0       -8.297517    4.068366   -1.129436
     65          1           0       -8.622464    3.987476    0.610946
     66          1           0       -7.729313    5.354780   -0.057932
     67          6           0       -6.020210    3.896363    1.488051
     68          1           0       -6.719918    3.553592    2.253992
     69          1           0       -5.051818    3.428352    1.677373
     70          1           0       -5.902500    4.978643    1.587970
     71          6           0       -9.461036   -1.466752   -1.692736
     72          1           0       -8.703895   -2.249278   -1.660534
     73          1           0      -10.443110   -1.931823   -1.814976
     74          1           0       -9.273961   -0.833483   -2.563984
     75          6           0      -10.570062    0.418313   -0.492375
     76          1           0      -10.622793    1.037990    0.406449
     77          1           0      -10.446665    1.076250   -1.356561
     78          1           0      -11.525737   -0.099631   -0.602165
     79          6           0       -9.750987   -1.530077    0.819721
     80          1           0      -10.736804   -1.985715    0.691573
     81          1           0       -9.008135   -2.318874    0.921224
     82          1           0       -9.767487   -0.939849    1.739808
 ---------------------------------------------------------------------
 Rotational constants (GHZ):           0.1781618           0.0309533           0.0270540
 Leave Link  202 at Fri Dec 21 18:12:37 2018, MaxMem=  1342177280 cpu:               0.3 elap:               0.0
 (Enter /gpfs/apps/hpc/Apps/Restricted/Gaussian/Rev_A.03/g16/l716.exe)
 Electric field and nuclear coordinate derivatives read from checkpoint file.
 Dipole        = 2.01342345D+00 1.95408380D+00-8.37046392D-03
 Polarizability= 9.68434237D+02-4.43503967D+01 7.93649724D+02
                 2.07272974D+01-4.63299108D+01 3.06315298D+02
 Full mass-weighted force constant matrix:
 Low frequencies ---   -8.2302   -0.0033    0.0005    0.0038    4.9419    9.3899
 Low frequencies ---   15.9170   20.6117   28.7277
 Diagonal vibrational polarizability:
      141.6256385      43.0381222     121.9864249
 Harmonic frequencies (cm**-1), IR intensities (KM/Mole), Raman scattering
 activities (A**4/AMU), depolarization ratios for plane and unpolarized
 incident light, reduced masses (AMU), force constants (mDyne/A),
 and normal coordinates:
                      1                      2                      3
                      A                      A                      A
 Frequencies --     11.3728                19.8602                28.5938
 Red. masses --      4.3261                 5.1853                 4.9878
 Frc consts  --      0.0003                 0.0012                 0.0024
 IR Inten    --      0.2033                 0.0122                 0.0605
  Atom  AN      X      Y      Z        X      Y      Z        X      Y      Z
     1   6    -0.01  -0.01  -0.01     0.01  -0.01  -0.11    -0.05  -0.04  -0.01
     2   6    -0.02  -0.01  -0.02     0.02  -0.01  -0.14    -0.06  -0.06  -0.00
     3   6    -0.02  -0.01  -0.00     0.03  -0.01  -0.16    -0.09  -0.07  -0.02
     4   6    -0.03  -0.00   0.02     0.03  -0.02  -0.17    -0.11  -0.05  -0.05
     5   6    -0.02   0.01   0.03     0.02  -0.02  -0.14    -0.09  -0.02  -0.06
     6   6    -0.02   0.00   0.02     0.02  -0.02  -0.11    -0.07  -0.02  -0.04
     7   6    -0.01  -0.02  -0.05     0.01   0.00  -0.09    -0.02  -0.07   0.03
     8   1    -0.02  -0.02  -0.01     0.03  -0.01  -0.18    -0.10  -0.08  -0.00
     9   1    -0.03   0.00   0.04     0.03  -0.02  -0.19    -0.13  -0.05  -0.06
    10   1    -0.02   0.01   0.05     0.03  -0.03  -0.14    -0.10  -0.01  -0.08
    11   6    -0.00  -0.03  -0.08     0.00   0.01  -0.04    -0.01  -0.07   0.04
    12   6    -0.00  -0.03  -0.09     0.00   0.01  -0.02    -0.02  -0.07   0.04
    13   6     0.00  -0.03  -0.10     0.00   0.01  -0.02    -0.03  -0.07   0.05
    14   6     0.00  -0.03  -0.09     0.00   0.01  -0.05    -0.03  -0.07   0.05
    15   6     0.00  -0.03  -0.08     0.00   0.01  -0.07    -0.02  -0.07   0.05
    16   6    -0.00  -0.03  -0.07     0.00   0.01  -0.07    -0.01  -0.07   0.04
    17   6    -0.00  -0.03  -0.07     0.00   0.01   0.01    -0.01  -0.06   0.03
    18   1     0.00  -0.03  -0.11     0.00   0.01  -0.00    -0.03  -0.07   0.05
    19   1     0.00  -0.03  -0.10     0.00   0.01  -0.05    -0.03  -0.07   0.06
    20   1     0.00  -0.03  -0.07     0.00   0.00  -0.09    -0.02  -0.08   0.05
    21   7    -0.01  -0.02  -0.04     0.01  -0.00  -0.12    -0.05  -0.08   0.03
    22   6    -0.01  -0.01  -0.02    -0.00   0.01   0.02    -0.00   0.00  -0.01
    23   6     0.00  -0.02  -0.05    -0.00   0.01   0.03     0.01  -0.03   0.02
    24   6     0.02  -0.02  -0.06    -0.01   0.01   0.06     0.05  -0.03   0.03
    25   6     0.03  -0.01  -0.03    -0.02   0.01   0.08     0.07   0.00   0.03
    26   6     0.02   0.01   0.03    -0.01   0.00   0.06     0.06   0.03   0.01
    27   6    -0.00   0.01   0.05    -0.00   0.00   0.02     0.02   0.04  -0.01
    28   1     0.03  -0.03  -0.09    -0.02   0.02   0.07     0.06  -0.06   0.05
    29   1     0.02   0.02   0.06    -0.02  -0.00   0.06     0.07   0.06   0.01
    30   6     0.05  -0.01  -0.05    -0.03   0.00   0.12     0.11  -0.00   0.04
    31   6    -0.02   0.03   0.13     0.00  -0.01  -0.01     0.01   0.08  -0.06
    32   8    -0.02  -0.01  -0.04     0.00   0.01   0.01    -0.03   0.01  -0.03
    33   7     0.00  -0.03  -0.07     0.00   0.01  -0.02    -0.00  -0.07   0.03
    34   7    -0.00  -0.03  -0.09     0.00   0.01   0.01    -0.02  -0.06   0.03
    35   7    -0.01  -0.01  -0.03     0.01  -0.00  -0.09    -0.03  -0.05   0.01
    36   6    -0.01   0.01   0.03     0.01  -0.02  -0.07    -0.05   0.01  -0.04
    37   1    -0.02   0.02   0.06     0.02  -0.02  -0.06    -0.06   0.03  -0.06
    38   7    -0.01   0.01   0.03     0.01  -0.01  -0.03    -0.02   0.01  -0.03
    39   6    -0.00   0.02   0.05     0.00  -0.01   0.04     0.01   0.06  -0.02
    40   6     0.02   0.03   0.06     0.07  -0.02   0.08     0.01   0.07  -0.01
    41   6    -0.02   0.03   0.06    -0.06   0.01   0.08    -0.01   0.09  -0.02
    42   1     0.01   0.02   0.04    -0.00  -0.00   0.04     0.04   0.05  -0.01
    43   6     0.02   0.04   0.07     0.06  -0.02   0.15     0.03   0.11  -0.00
    44   1     0.01   0.03   0.06     0.07  -0.03   0.07    -0.01   0.08  -0.02
    45   1     0.03   0.03   0.05     0.11  -0.04   0.06     0.02   0.06  -0.02
    46   6    -0.02   0.04   0.07    -0.06   0.02   0.15     0.00   0.12  -0.00
    47   1    -0.03   0.03   0.06    -0.06   0.01   0.07    -0.04   0.09  -0.02
    48   1    -0.03   0.02   0.05    -0.10   0.02   0.05    -0.02   0.08  -0.02
    49   6    -0.00   0.04   0.09     0.00   0.01   0.18     0.01   0.14  -0.00
    50   1     0.03   0.04   0.08     0.10  -0.03   0.18     0.03   0.12  -0.00
    51   1     0.02   0.04   0.07     0.06  -0.01   0.16     0.06   0.10   0.00
    52   1    -0.03   0.04   0.08    -0.10   0.03   0.17    -0.01   0.14  -0.00
    53   1    -0.01   0.03   0.07    -0.07   0.02   0.15     0.03   0.12   0.00
    54   1     0.00   0.05   0.10     0.00   0.02   0.24     0.02   0.16   0.01
    55   1    -0.01   0.04   0.09     0.00   0.01   0.18    -0.02   0.14  -0.01
    56   1    -0.00  -0.03  -0.08     0.00   0.01   0.02    -0.02  -0.05   0.02
    57   1    -0.01  -0.03  -0.05     0.01   0.01  -0.12    -0.05  -0.10   0.04
    58   1    -0.00   0.00   0.01     0.00  -0.01  -0.04    -0.00  -0.01  -0.01
    59   6     0.03  -0.04  -0.08    -0.04   0.04   0.13     0.12  -0.03   0.03
    60   1     0.04  -0.03  -0.11    -0.04   0.04   0.16     0.16  -0.03   0.03
    61   1     0.03  -0.04  -0.09    -0.04   0.04   0.10     0.11  -0.06   0.03
    62   1     0.01  -0.05  -0.07    -0.05   0.07   0.12     0.11  -0.02   0.03
    63   6     0.05   0.01  -0.04    -0.04  -0.00   0.14     0.13   0.03   0.04
    64   1     0.04  -0.00  -0.03    -0.04   0.02   0.13     0.12   0.04   0.04
    65   1     0.06   0.03  -0.03    -0.03  -0.03   0.13     0.13   0.05   0.04
    66   1     0.07   0.01  -0.06    -0.05  -0.00   0.16     0.16   0.03   0.04
    67   6     0.09   0.01  -0.07    -0.03  -0.03   0.12     0.13  -0.02   0.03
    68   1     0.10   0.04  -0.05    -0.03  -0.05   0.12     0.13  -0.01   0.04
    69   1     0.08   0.00  -0.08    -0.03  -0.02   0.11     0.12  -0.04   0.03
    70   1     0.10   0.01  -0.10    -0.04  -0.03   0.15     0.16  -0.02   0.04
    71   6    -0.13   0.04   0.13     0.03   0.01  -0.02     0.02   0.12  -0.08
    72   1    -0.15   0.01   0.08     0.04   0.02  -0.02    -0.00   0.10  -0.08
    73   1    -0.15   0.06   0.19     0.04   0.00  -0.04     0.01   0.14  -0.12
    74   1    -0.16   0.03   0.12     0.04   0.02  -0.01     0.05   0.14  -0.06
    75   6    -0.01   0.05   0.22    -0.00  -0.01  -0.02     0.04   0.11  -0.05
    76   1     0.08   0.07   0.21    -0.04  -0.04  -0.00     0.03   0.08  -0.04
    77   1    -0.09   0.03   0.20     0.02   0.01   0.01     0.07   0.13  -0.03
    78   1    -0.03   0.06   0.32     0.00  -0.02  -0.06     0.02   0.14  -0.09
    79   6     0.05   0.03   0.15    -0.01  -0.02  -0.02    -0.04   0.05  -0.09
    80   1     0.03   0.06   0.23    -0.01  -0.03  -0.05    -0.05   0.07  -0.13
    81   1     0.04   0.01   0.09    -0.01  -0.02  -0.02    -0.06   0.04  -0.09
    82   1     0.14   0.02   0.16    -0.04  -0.03  -0.02    -0.06   0.03  -0.07
                      4                      5                      6
                      A                      A                      A
 Frequencies --     40.5613                45.1594                56.0264
 Red. masses --      4.7185                 5.0490                 3.8915
 Frc consts  --      0.0046                 0.0061                 0.0072
 IR Inten    --      0.3755                 0.6003                 0.2031
  Atom  AN      X      Y      Z        X      Y      Z        X      Y      Z
     1   6    -0.01   0.01  -0.03     0.03  -0.09   0.01     0.00  -0.00   0.02
     2   6    -0.02   0.01  -0.00     0.04  -0.06   0.01     0.01  -0.01  -0.08
     3   6    -0.02   0.02   0.05     0.05  -0.06   0.03     0.01  -0.02  -0.12
     4   6    -0.02   0.03   0.09     0.06  -0.07   0.05     0.02  -0.01  -0.06
     5   6    -0.02   0.03   0.07     0.05  -0.08   0.05     0.01  -0.00   0.04
     6   6    -0.02   0.02   0.02     0.03  -0.09   0.02     0.01   0.00   0.08
     7   6    -0.01  -0.00  -0.08     0.00  -0.06  -0.02    -0.00  -0.00  -0.04
     8   1    -0.02   0.02   0.07     0.05  -0.05   0.04     0.02  -0.03  -0.21
     9   1    -0.03   0.04   0.14     0.07  -0.07   0.07     0.02  -0.02  -0.09
    10   1    -0.02   0.04   0.11     0.05  -0.09   0.06     0.02  -0.00   0.09
    11   6     0.00  -0.01  -0.03    -0.04  -0.00  -0.01    -0.01  -0.00  -0.04
    12   6     0.01  -0.01  -0.01    -0.06   0.01  -0.01    -0.01  -0.00  -0.02
    13   6     0.01  -0.01  -0.06    -0.09  -0.00  -0.02    -0.01   0.00   0.00
    14   6     0.02  -0.02  -0.15    -0.09  -0.04  -0.04    -0.01   0.00   0.01
    15   6     0.01  -0.02  -0.16    -0.07  -0.05  -0.04    -0.01   0.00  -0.01
    16   6     0.00  -0.01  -0.10    -0.04  -0.04  -0.03    -0.01  -0.00  -0.03
    17   6     0.00  -0.01   0.08    -0.03   0.03   0.01    -0.01  -0.00  -0.03
    18   1     0.02  -0.02  -0.05    -0.11   0.01  -0.01    -0.01   0.00   0.02
    19   1     0.02  -0.02  -0.20    -0.11  -0.05  -0.05    -0.01   0.00   0.03
    20   1     0.01  -0.02  -0.21    -0.07  -0.08  -0.06    -0.01   0.00   0.01
    21   7    -0.01  -0.00  -0.04     0.02  -0.05  -0.01     0.00  -0.01  -0.12
    22   6    -0.00   0.00   0.14    -0.04   0.03   0.03    -0.01  -0.00   0.01
    23   6     0.00  -0.00   0.11    -0.03   0.04   0.01    -0.01  -0.00  -0.00
    24   6     0.01  -0.00   0.07    -0.05   0.04  -0.01    -0.01  -0.00   0.01
    25   6     0.01  -0.00   0.04    -0.05   0.03  -0.02    -0.01  -0.00   0.04
    26   6     0.01   0.00   0.03    -0.05   0.02  -0.02    -0.01   0.00   0.05
    27   6     0.01   0.00   0.06    -0.04   0.02   0.00    -0.01   0.00   0.02
    28   1     0.01  -0.00   0.04    -0.05   0.05  -0.02    -0.01  -0.00  -0.00
    29   1     0.02   0.01  -0.01    -0.05   0.01  -0.04    -0.01   0.00   0.07
    30   6     0.03   0.00  -0.04    -0.07   0.03  -0.02    -0.00  -0.00   0.03
    31   6     0.02  -0.00  -0.02    -0.03   0.01   0.01    -0.01   0.00  -0.01
    32   8    -0.01   0.00   0.23    -0.04   0.03   0.07    -0.01  -0.00   0.00
    33   7     0.00  -0.01   0.03    -0.02   0.01  -0.00    -0.01  -0.00  -0.05
    34   7     0.00  -0.01   0.07    -0.05   0.03   0.01    -0.01  -0.00  -0.01
    35   7    -0.01   0.00  -0.08     0.01  -0.08  -0.01    -0.00   0.00   0.04
    36   6    -0.02   0.02   0.02     0.04  -0.07   0.02     0.00   0.01   0.14
    37   1    -0.01   0.02   0.05     0.03  -0.04   0.03     0.00   0.01   0.15
    38   7    -0.02   0.01  -0.02     0.09  -0.07  -0.00     0.01   0.01   0.17
    39   6    -0.03   0.00  -0.01     0.13  -0.00  -0.01     0.01   0.02   0.12
    40   6    -0.01   0.02   0.00     0.12   0.05  -0.01    -0.09  -0.05   0.05
    41   6    -0.05  -0.02   0.01     0.11   0.03  -0.00     0.12   0.07   0.03
    42   1    -0.04   0.00  -0.03     0.19  -0.02  -0.02     0.02   0.03   0.20
    43   6    -0.01   0.01   0.01     0.16   0.12  -0.02    -0.09  -0.05  -0.03
    44   1    -0.00   0.02   0.03     0.07   0.06   0.00    -0.11  -0.06  -0.02
    45   1     0.00   0.04  -0.01     0.14   0.03  -0.01    -0.17  -0.09   0.11
    46   6    -0.05  -0.03   0.02     0.14   0.10  -0.01     0.12   0.07  -0.05
    47   1    -0.04  -0.02   0.03     0.05   0.04   0.01     0.12   0.06  -0.03
    48   1    -0.06  -0.03  -0.00     0.12  -0.01  -0.00     0.19   0.12   0.08
    49   6    -0.03  -0.01   0.04     0.14   0.15  -0.01     0.01  -0.00  -0.12
    50   1     0.00   0.02   0.03     0.15   0.16  -0.02    -0.16  -0.09  -0.08
    51   1    -0.02   0.01  -0.01     0.22   0.11  -0.03    -0.08  -0.05   0.03
    52   1    -0.06  -0.05   0.04     0.13   0.11  -0.01     0.19   0.11  -0.11
    53   1    -0.06  -0.03  -0.00     0.20   0.08  -0.02     0.13   0.08   0.02
    54   1    -0.04  -0.02   0.04     0.17   0.20  -0.02     0.02  -0.00  -0.17
    55   1    -0.02  -0.01   0.06     0.08   0.17  -0.00     0.01  -0.01  -0.19
    56   1    -0.00  -0.00   0.13    -0.06   0.05   0.03    -0.01  -0.00   0.01
    57   1    -0.01  -0.00  -0.02     0.03  -0.03  -0.01     0.00  -0.01  -0.15
    58   1    -0.03   0.01  -0.06     0.11  -0.11  -0.01     0.01   0.01   0.14
    59   6     0.00  -0.07  -0.10    -0.06   0.05   0.00    -0.08  -0.02  -0.05
    60   1     0.01  -0.06  -0.17    -0.07   0.05   0.01    -0.07  -0.02  -0.08
    61   1     0.00  -0.07  -0.11    -0.05   0.06   0.02    -0.07  -0.03  -0.12
    62   1    -0.03  -0.12  -0.08    -0.03   0.05  -0.01    -0.16  -0.03  -0.02
    63   6     0.03   0.01  -0.03    -0.08   0.02  -0.05    -0.01  -0.00   0.12
    64   1     0.01  -0.03  -0.01    -0.06   0.01  -0.05    -0.08  -0.00   0.14
    65   1     0.05   0.04   0.00    -0.09   0.01  -0.06     0.03  -0.01   0.16
    66   1     0.04   0.01  -0.07    -0.09   0.02  -0.05    -0.01  -0.00   0.11
    67   6     0.10   0.07  -0.08    -0.11   0.03  -0.01     0.11   0.02  -0.02
    68   1     0.12   0.13  -0.03    -0.13   0.02  -0.03     0.17   0.04   0.05
    69   1     0.10   0.07  -0.09    -0.11   0.04   0.02     0.12   0.02  -0.08
    70   1     0.11   0.08  -0.14    -0.12   0.03  -0.00     0.12   0.02  -0.04
    71   6     0.13  -0.06   0.02    -0.02  -0.04   0.03     0.02   0.03  -0.03
    72   1     0.14  -0.05   0.11    -0.01  -0.03   0.06     0.02   0.03  -0.03
    73   1     0.14  -0.08  -0.03    -0.01  -0.05   0.04     0.02   0.03  -0.06
    74   1     0.18  -0.10   0.00    -0.02  -0.06   0.01     0.04   0.05  -0.01
    75   6     0.03  -0.01  -0.16    -0.04  -0.00  -0.04    -0.01   0.00  -0.02
    76   1    -0.07   0.02  -0.18    -0.06   0.02  -0.06    -0.04  -0.02  -0.00
[...]
 ! R37   R(25,26)                0.0414                  2.7                    !
 ! R39   R(26,27)                0.0435                  2.8                    !
 ! R40   R(26,29)               -1.0812                 69.5                    !
 ! R74   R(63,65)               -0.0146                  0.9                    !
 ! R83   R(75,77)               -0.0147                  0.9                    !
 ! A55   A(24,25,26)             0.0277                  1.8                    !
 ! A57   A(26,25,30)            -0.0289                  1.9                    !
 ! A58   A(25,26,27)            -0.0567                  3.6                    !
 ! A59   A(25,26,29)             0.0278                  1.8                    !
 ! A60   A(27,26,29)             0.0289                  1.9                    !
 ! A61   A(22,27,26)             0.0279                  1.8                    !
 ! A63   A(26,27,31)            -0.0294                  1.9                    !
 --------------------------------------------------------------------------------
                           ----------------------------
                           ! Normal Mode   238        !
 --------------------------                            --------------------------
 ! Name  Definition              Value          Relative Weight (%)             !
 --------------------------------------------------------------------------------
 ! R30   R(21,57)               -0.0161                  0.9                    !
 ! R49   R(36,37)                0.0662                  3.9                    !
 ! R50   R(36,38)                0.0332                  1.9                    !
 ! R51   R(38,39)                0.0355                  2.1                    !
 ! R52   R(38,58)               -1.0684                 62.7                    !
 ! A82   A(6,36,38)             -0.0245                  1.4                    !
 ! A83   A(37,36,38)             0.0298                  1.7                    !
 ! A84   A(36,38,39)            -0.0499                  2.9                    !
 ! A86   A(39,38,58)             0.0523                  3.1                    !
 ! A87   A(38,39,40)             0.0113                  0.7                    !
 ! A88   A(38,39,41)             0.0109                  0.6                    !
 ! A89   A(38,39,42)            -0.0252                  1.5                    !
 ! D185  D(38,39,40,43)          0.0229                  1.3                    !
 ! D186  D(38,39,40,44)          0.0225                  1.3                    !
 ! D187  D(38,39,40,45)          0.0228                  1.3                    !
 ! D194  D(38,39,41,46)         -0.0229                  1.3                    !
 ! D195  D(38,39,41,47)         -0.0229                  1.3                    !
 ! D196  D(38,39,41,48)         -0.0232                  1.4                    !
 --------------------------------------------------------------------------------
                           ----------------------------
                           ! Normal Mode   239        !
 --------------------------                            --------------------------
 ! Name  Definition              Value          Relative Weight (%)             !
 --------------------------------------------------------------------------------
 ! R5    R(2,21)                 0.0498                  3.4                    !
 ! R14   R(7,21)                 0.0437                  2.9                    !
 ! R30   R(21,57)               -1.0731                 72.4                    !
 ! A5    A(1,2,21)               0.0238                  1.6                    !
 ! A6    A(3,2,21)              -0.025                   1.7                    !
 ! A19   A(16,7,21)             -0.0252                  1.7                    !
 ! A21   A(21,7,35)              0.0249                  1.7                    !
 ! A43   A(2,21,7)              -0.0492                  3.3                    !
 ! A44   A(2,21,57)              0.0515                  3.5                    !
 --------------------------------------------------------------------------------
                           ----------------------------
                           ! Normal Mode   240        !
 --------------------------                            --------------------------
 ! Name  Definition              Value          Relative Weight (%)             !
 --------------------------------------------------------------------------------
 ! R20   R(12,34)                0.0486                  3.3                    !
 ! R29   R(17,34)                0.0425                  2.9                    !
 ! R48   R(34,56)               -1.0715                 73.6                    !
 ! A26   A(11,12,34)             0.0231                  1.6                    !
 ! A27   A(13,12,34)            -0.0244                  1.7                    !
 ! A41   A(23,17,34)            -0.0244                  1.7                    !
 ! A42   A(33,17,34)             0.024                   1.7                    !
 ! A77   A(12,34,17)            -0.0478                  3.3                    !
 ! A78   A(12,34,56)             0.052                   3.6                    !
 --------------------------------------------------------------------------------
 -------------------------------------------------------------------
 Center     Atomic                   Forces (Hartrees/Bohr)
 Number     Number              X              Y              Z
 -------------------------------------------------------------------
      1        6          -0.000000584    0.000002255   -0.000001403
      2        6          -0.000001017    0.000001154   -0.000002655
      3        6          -0.000002079    0.000000694   -0.000005183
      4        6          -0.000002536    0.000001422   -0.000006320
      5        6          -0.000002012    0.000002536   -0.000005097
      6        6          -0.000001091    0.000002821   -0.000002506
      7        6           0.000000335    0.000001469    0.000001140
      8        1          -0.000002321   -0.000000052   -0.000006173
      9        1          -0.000003242    0.000001099   -0.000008266
     10        1          -0.000002367    0.000003011   -0.000005988
     11        6           0.000001288    0.000000125    0.000003282
     12        6           0.000002042   -0.000000099    0.000005346
     13        6           0.000002984    0.000000568    0.000007633
     14        6           0.000002967    0.000001604    0.000007695
     15        6           0.000002153    0.000001898    0.000005591
     16        6           0.000001288    0.000001174    0.000003304
     17        6           0.000000812   -0.000001628    0.000002164
     18        1           0.000003616    0.000000298    0.000009262
     19        1           0.000003649    0.000002155    0.000009431
     20        1           0.000002169    0.000002675    0.000005730
     21        7          -0.000000431    0.000000700   -0.000001088
     22        6           0.000000783   -0.000004172    0.000001792
     23        6           0.000000368   -0.000002432    0.000000851
     24        6          -0.000000613   -0.000002404   -0.000001757
     25        6          -0.000001328   -0.000003316   -0.000003285
     26        6          -0.000000806   -0.000004520   -0.000002023
     27        6           0.000000122   -0.000004741    0.000000194
     28        1          -0.000000950   -0.000001440   -0.000002597
     29        1          -0.000001163   -0.000005397   -0.000003263
     30        6          -0.000002299   -0.000003099   -0.000005963
     31        6           0.000000690   -0.000006010    0.000001506
     32        8           0.000001644   -0.000003496    0.000004246
     33        7           0.000000587   -0.000000523    0.000001222
     34        7           0.000001866   -0.000001232    0.000004662
     35        7           0.000000452    0.000002463    0.000001059
     36        6          -0.000000549    0.000003977   -0.000001295
     37        1          -0.000000957    0.000004503   -0.000002210
     38        7           0.000000312    0.000004371    0.000001067
     39        6           0.000000875    0.000005507    0.000002332
     40        6           0.000000782    0.000003747    0.000002235
     41        6           0.000000469    0.000008256    0.000001575
     42        1           0.000001593    0.000005590    0.000004301
     43        6           0.000001300    0.000004919    0.000003573
     44        1           0.000000077    0.000003516    0.000000301
     45        1           0.000001104    0.000001808    0.000002881
     46        6           0.000001023    0.000009393    0.000002961
     47        1          -0.000000290    0.000008227   -0.000000368
     48        1           0.000000538    0.000009479    0.000001808
     49        6           0.000000951    0.000007642    0.000002763
     50        1           0.000001252    0.000003631    0.000003359
     51        1           0.000002078    0.000004939    0.000005523
     52        1           0.000000698    0.000011332    0.000002292
     53        1           0.000001738    0.000009588    0.000004865
     54        1           0.000001339    0.000008453    0.000003772
     55        1           0.000000200    0.000007579    0.000000840
     56        1           0.000002227   -0.000001783    0.000005558
     57        1          -0.000000522   -0.000000069   -0.000001267
     58        1           0.000000718    0.000003919    0.000001995
     59        6          -0.000002644   -0.000004388   -0.000006814
     60        1          -0.000003363   -0.000004075   -0.000008811
     61        1          -0.000002245   -0.000003343   -0.000006034
     62        1          -0.000002389   -0.000006305   -0.000006447
     63        6          -0.000002757   -0.000004431   -0.000007296
     64        1          -0.000002617   -0.000006573   -0.000006927
     65        1          -0.000002578   -0.000003648   -0.000006788
     66        1          -0.000003535   -0.000004227   -0.000009263
     67        6          -0.000002543   -0.000000159   -0.000006607
     68        1          -0.000002382    0.000000726   -0.000005997
     69        1          -0.000002251    0.000000694   -0.000005688
     70        1          -0.000003315    0.000000076   -0.000008500
     71        6           0.000001330   -0.000008398    0.000003038
     72        1           0.000001871   -0.000007730    0.000004467
     73        1           0.000001653   -0.000009270    0.000003814
     74        1           0.000000884   -0.000009778    0.000001893
     75        6          -0.000000071   -0.000006955   -0.000000409
     76        1          -0.000000444   -0.000005373   -0.000001538
     77        1          -0.000000488   -0.000008400   -0.000001613
     78        1           0.000000356   -0.000007855    0.000000449
     79        6           0.000001255   -0.000004041    0.000003153
     80        1           0.000001628   -0.000004953    0.000003922
     81        1           0.000001864   -0.000003300    0.000004535
     82        1           0.000000845   -0.000002381    0.000002056
 -------------------------------------------------------------------
 Cartesian Forces:  Max     0.000011332 RMS     0.000003987
 FormGI is forming the generalized inverse of G from B-inverse, IUseBI=4.
 Leave Link  716 at Fri Dec 21 18:12:38 2018, MaxMem=  1342177280 cpu:               8.3 elap:               0.5
 (Enter /gpfs/apps/hpc/Apps/Restricted/Gaussian/Rev_A.03/g16/l9999.exe)

 ----------------------------------------------------------------------

 Electric dipole moment (input orientation):
 (Debye = 10**-18 statcoulomb cm , SI units = C m)
                  (au)            (Debye)         (10**-30 SI)
   Tot        0.280578D+01      0.713157D+01      0.237884D+02
   x          0.201342D+01      0.511761D+01      0.170705D+02
   y          0.195408D+01      0.496679D+01      0.165674D+02
   z         -0.837046D-02     -0.212756D-01     -0.709678D-01

 Dipole polarizability, Alpha (input orientation).
 (esu units = cm**3 , SI units = C**2 m**2 J**-1)
 Alpha(0;0):
               (au)            (10**-24 esu)      (10**-40 SI)
   iso        0.689466D+03      0.102168D+03      0.113678D+03
   aniso      0.605683D+03      0.897530D+02      0.998637D+02
   xx         0.968434D+03      0.143507D+03      0.159673D+03
   yx        -0.443504D+02     -0.657205D+01     -0.731239D+01
   yy         0.793650D+03      0.117607D+03      0.130855D+03
   zx         0.207273D+02      0.307147D+01      0.341747D+01
   zy        -0.463299D+02     -0.686538D+01     -0.763877D+01
   zz         0.306315D+03      0.453912D+02      0.505046D+02

 ----------------------------------------------------------------------

 Dipole orientation:
     6          0.45751003         -0.17901229          3.55723026
     6         -1.16425934          1.84279082          2.88457626
     6         -2.17233003          3.48675330          4.67074198
     6         -1.52110245          3.08637312          7.20443214
     6          0.07025038          1.10641805          7.92038171
     6          1.10199661         -0.56354056          6.12312379
     6          0.06781897         -0.32343575         -0.48712347
     1         -3.40485547          5.02624317          4.12513524
     1         -2.27521130          4.33420642          8.63995953
     1          0.53659744          0.84041669          9.89641031
     6         -1.01101150          0.42706862         -5.00616838
     6         -0.69423463         -0.17864392         -7.59947002
     6          0.84336045         -2.16022961         -8.40929814
     6          2.08987366         -3.53743362         -6.54003251
     6          1.83535310         -2.95241960         -3.96440055
     6          0.29316100         -0.97226956         -3.13986525
     6         -3.30055781          3.07271169         -7.10138405
     1          1.06243054         -2.60694100        -10.39397747
     1          3.29954961         -5.09573568         -7.08657918
     1          2.85708250         -4.04504595         -2.56875584
     7         -1.36927118          1.67474500          0.29660087
     6         -5.37786651          5.86536970        -10.39576943
     6         -5.01591187          5.11546024         -7.74738057
     6         -6.31221429          6.34386777         -5.84209984
     6         -7.98671209          8.34130229         -6.36166852
     6         -8.30442510          9.11243958         -8.90228922
     6         -7.09315348          7.98154115        -10.91517138
     1         -6.03088585          5.71591631         -3.91542633
     1         -9.57678453         10.66136452         -9.27330628
     6         -9.45044317          9.55249202         -4.19400612
     6         -7.50077901          8.86416027        -13.63255323
     8         -4.24004752          4.71572998        -12.14323578
     7         -2.63926873          2.43666236         -4.74470244
     7         -2.17144378          1.54796802         -8.85787621
     7          1.19934982         -1.49682742          1.45272695
     6          2.73868907         -2.56202795          6.90207336
     1          3.16071312         -2.78058201          8.89700091
     7          3.77680283         -4.15069932          5.34241972
     6          5.48785818         -6.21790999          6.11517964
     6          7.86307076         -5.15454299          7.39492324
     6          4.10785633         -8.11150365          7.82469937
     1          6.02404131         -7.15715464          4.35905853
     6          9.62482426         -7.29508339          8.22809797
     1          7.28436166         -4.05613293          9.05306257
     1          8.82331015         -3.86150873          6.10209566
     6          5.89494845        -10.23390216          8.65393219
     1          3.40851798         -7.10457152          9.49513949
     1          2.46552090         -8.87248513          6.83000061
     6          8.25724521         -9.17749246          9.95133354
     1         11.27219990         -6.49200396          9.18287656
     1         10.32919233         -8.29115478          6.55246683
     1          4.88696430        -11.52729723          9.91094773
     1          6.46388134        -11.33404680          6.99207214
     1          9.53135346        -10.71694604         10.47919555
     1          7.70526515         -8.22102296         11.70604642
     1         -2.41410805          1.85152412        -10.73670456
     1         -2.37139813          2.76233646         -0.93964276
     1          3.36115955         -3.90947874          3.46239445
     6         -7.58537356         10.47305885         -2.15012627
     1         -8.64156829         11.30205454         -0.58011954
     1         -6.44712820          8.92259166         -1.40144058
     1         -6.31169430         11.91071337         -2.90788612
     6        -11.06377744         11.80086866         -5.06060322
     1         -9.90366669         13.29422426         -5.89123482
     1        -12.48401987         11.23302138         -6.44815672
     1        -12.05609272         12.59409974         -3.43370460
     6        -11.20943733          7.52524352         -3.04418717
     1        -12.56273779          6.84737250         -4.44847715
     1        -10.13802217          5.90461007         -2.34800045
     1        -12.26258138          8.33246835         -1.46074000
     6         -4.95972065          9.76653555        -14.75063652
     1         -3.57033304          8.24759615        -14.75396711
     1         -5.25073582         10.40639510        -16.69378411
     1         -4.20718928         11.35049213        -13.65859350
     6         -9.38645300         11.06651521        -13.78038131
     1        -11.24049026         10.53484904        -13.04139946
     1         -8.72504601         12.72543374        -12.74226457
     1         -9.62014607         11.61367560        -15.75738709
     6         -8.57172119          6.67310127        -15.24133573
     1         -8.86708137          7.33343514        -17.17711037
     1         -7.28342632          5.07040391        -15.27268718
     1        -10.39359431          6.05055308        -14.49209875

 Electric dipole moment (dipole orientation):
 (Debye = 10**-18 statcoulomb cm , SI units = C m)
                  (au)            (Debye)         (10**-30 SI)
   Tot        0.280578D+01      0.713157D+01      0.237884D+02
   x          0.000000D+00      0.000000D+00      0.000000D+00
   y          0.000000D+00      0.000000D+00      0.000000D+00
   z          0.280578D+01      0.713157D+01      0.237884D+02

 Dipole polarizability, Alpha (dipole orientation).
 (esu units = cm**3 , SI units = C**2 m**2 J**-1)
 Alpha(0;0):
               (au)            (10**-24 esu)      (10**-40 SI)
   iso        0.689466D+03      0.102168D+03      0.113678D+03
   aniso      0.605683D+03      0.897530D+02      0.998637D+02
   xx         0.557343D+03      0.825898D+02      0.918935D+02
   yx        -0.306700D+03     -0.454482D+02     -0.505679D+02
   yy         0.671632D+03      0.995256D+02      0.110737D+03
   zx         0.730015D+02      0.108177D+02      0.120363D+02
   zy        -0.525288D+02     -0.778396D+01     -0.866082D+01
   zz         0.839424D+03      0.124390D+03      0.138402D+03

 ----------------------------------------------------------------------

 This type of calculation cannot be archived.


 NEVER LOSE YOUR IGNORANCE, IT CAN'T BE REPLACED.
   -- ANDY CAPP
 Job cpu time:       0 days  0 hours  0 minutes 23.8 seconds.
 Elapsed time:       0 days  0 hours  0 minutes  1.6 seconds.
 File lengths (MBytes):  RWF=     72 Int=      0 D2E=      0 Chk=    116 Scr=      8
 Normal termination of Gaussian 16 at Fri Dec 21 18:12:38 2018.
