 Entering Gaussian System, Link 0=g16
 Input=cyclohexyl-diBIP-E3PT.com
 Output=cyclohexyl-diBIP-E3PT.log
 Initial command:
 /gpfs/apps/hpc/Apps/Restricted/Gaussian/Rev_A.03/g16/l1.exe "/gpfs/scratch60/fas/hammes_schiffer/jg2487/c44n01/Gau-179054.inp" -scrdir="/gpfs/scratch60/fas/hammes_schiffer/jg2487/c44n01/"
 Entering Link 1 = /gpfs/apps/hpc/Apps/Restricted/Gaussian/Rev_A.03/g16/l1.exe PID=    179055.
  
 Copyright (c) 1988,1990,1992,1993,1995,1998,2003,2009,2016,
            Gaussian, Inc.  All Rights Reserved.
  
 This is part of the Gaussian(R) 16 program.  It is based on
 the Gaussian(R) 09 system (copyright 2009, Gaussian, Inc.),
 the Gaussian(R) 03 system (copyright 2003, Gaussian, Inc.),
 the Gaussian(R) 98 system (copyright 1998, Gaussian, Inc.),
 the Gaussian(R) 94 system (copyright 1995, Gaussian, Inc.),
 the Gaussian 92(TM) system (copyright 1992, Gaussian, Inc.),
 the Gaussian 90(TM) system (copyright 1990, Gaussian, Inc.),
 the Gaussian 88(TM) system (copyright 1988, Gaussian, Inc.),
 the Gaussian 86(TM) system (copyright 1986, Carnegie Mellon
 University), and the Gaussian 82(TM) system (copyright 1983,
 Carnegie Mellon University). Gaussian is a federally registered
 trademark of Gaussian, Inc.
  
 This software contains proprietary and confidential information,
 including trade secrets, belonging to Gaussian, Inc.
  
 This software is provided under written license and may be
 used, copied, transmitted, or stored only in accord with that
 written license.
  
 The following legend is applicable only to US Government
 contracts under FAR:
  
                    RESTRICTED RIGHTS LEGEND
  
 Use, reproduction and disclosure by the US Government is
 subject to restrictions as set forth in subparagraphs (a)
 and (c) of the Commercial Computer Software - Restricted
 Rights clause in FAR 52.227-19.
  
 Gaussian, Inc.
 340 Quinnipiac St., Bldg. 40, Wallingford CT 06492
  
  
 ---------------------------------------------------------------
 Warning -- This program may not be used in any manner that
 competes with the business of Gaussian, Inc. or will provide
 assistance to any competitor of Gaussian, Inc.  The licensee
 of this program is prohibited from giving any competitor of
 Gaussian, Inc. access to this program.  By using this program,
 the user acknowledges that Gaussian, Inc. is engaged in the
 business of creating and licensing software in the field of
 computational chemistry and represents and warrants to the
 licensee that it is not a competitor of Gaussian, Inc. and that
 it will not use this program in any manner prohibited above.
 ---------------------------------------------------------------
  

 Cite this work as:
 Gaussian 16, Revision A.03,
 M. J. Frisch, G. W. Trucks, H. B. Schlegel, G. E. Scuseria, 
 M. A. Robb, J. R. Cheeseman, G. Scalmani, V. Barone, 
 G. A. Petersson, H. Nakatsuji, X. Li, M. Caricato, A. V. Marenich, 
 J. Bloino, B. G. Janesko, R. Gomperts, B. Mennucci, H. P. Hratchian, 
 J. V. Ortiz, A. F. Izmaylov, J. L. Sonnenberg, D. Williams-Young, 
 F. Ding, F. Lipparini, F. Egidi, J. Goings, B. Peng, A. Petrone, 
 T. Henderson, D. Ranasinghe, V. G. Zakrzewski, J. Gao, N. Rega, 
 G. Zheng, W. Liang, M. Hada, M. Ehara, K. Toyota, R. Fukuda, 
 J. Hasegawa, M. Ishida, T. Nakajima, Y. Honda, O. Kitao, H. Nakai, 
 T. Vreven, K. Throssell, J. A. Montgomery, Jr., J. E. Peralta, 
 F. Ogliaro, M. J. Bearpark, J. J. Heyd, E. N. Brothers, K. N. Kudin, 
 V. N. Staroverov, T. A. Keith, R. Kobayashi, J. Normand, 
 K. Raghavachari, A. P. Rendell, J. C. Burant, S. S. Iyengar, 
 J. Tomasi, M. Cossi, J. M. Millam, M. Klene, C. Adamo, R. Cammi, 
 J. W. Ochterski, R. L. Martin, K. Morokuma, O. Farkas, 
 J. B. Foresman, and D. J. Fox, Gaussian, Inc., Wallingford CT, 2016.
 
 ******************************************
 Gaussian 16:  ES64L-G16RevA.03 25-Dec-2016
                14-Dec-2018 
 ******************************************
 %chk=cyclohexyl-diBIP-E3PT.chk
 %mem=10GB
 %nprocshared=16
 Will use up to   16 processors via shared memory.
 ----------------------------------------------------------------
 #p freq(ReadFC,InternalModes) Geom(AllCheck) NoSymm scale=0.9649
 ----------------------------------------------------------------
 1/18=20,29=7,38=1,114=964900/1,3;
 2/9=110,12=2,15=1,40=1/2;
 7/8=21,25=11,30=1/16;
 99/5=2/99;
 Leave Link    1 at Fri Dec 14 14:01:42 2018, MaxMem=  1342177280 cpu:               6.2 elap:               0.5
 (Enter /gpfs/apps/hpc/Apps/Restricted/Gaussian/Rev_A.03/g16/l101.exe)
 Structure from the checkpoint file:  "cyclohexyl-diBIP-E3PT.chk"
 ----------------------------------------------------------------------
 cyclohexylimine diBIP oxidized, all three proton transferred, optimiza
 tion
 ----------------------------------------------------------------------
 Charge =  1 Multiplicity = 2
 Redundant internal coordinates found in file.  (old form).
 C,0,1.53135,1.166252,0.057062
 C,0,0.330498,1.916953,0.013619
 C,0,0.325835,3.303245,-0.098565
 C,0,1.565884,3.9496,-0.172336
 C,0,2.764473,3.234973,-0.128753
 C,0,2.778243,1.830708,-0.014639
 C,0,-0.076573,-0.257536,0.176579
 H,0,-0.59983,3.863785,-0.131264
 H,0,1.595449,5.02807,-0.261511
 H,0,3.707685,3.765752,-0.185311
 C,0,-2.27493,-1.426107,0.234694
 C,0,-3.024293,-2.630442,0.282839
 C,0,-2.419725,-3.884058,0.374306
 C,0,-1.025984,-3.9092,0.406931
 C,0,-0.262064,-2.732829,0.345637
 C,0,-0.861821,-1.47317,0.258808
 C,0,-4.35383,-0.858368,0.142461
 H,0,-3.004225,-4.794588,0.41274
 H,0,-0.515876,-4.862305,0.475427
 H,0,0.818858,-2.791444,0.362494
 N,0,-0.667878,0.972257,0.097428
 C,0,-6.873178,-0.774369,-0.086634
 C,0,-5.580624,-0.090934,0.04401
 C,0,-5.534517,1.292295,0.060998
 C,0,-6.700579,2.0705,-0.061429
 C,0,-7.949805,1.423825,-0.212914
 C,0,-8.068349,0.052976,-0.229875
 H,0,-4.574781,1.783335,0.17226
 H,0,-8.84118,2.034774,-0.309654
 C,0,-6.611588,3.566278,-0.037792
 H,0,-6.070437,3.906679,0.849939
 H,0,-6.053714,3.93094,-0.906843
 H,0,-7.600493,4.025317,-0.04496
 C,0,-9.385451,-0.639875,-0.375092
 H,0,-9.354207,-1.369308,-1.188508
 H,0,-9.631158,-1.198081,0.534143
 H,0,-10.181407,0.079489,-0.56767
 O,0,-6.973287,-2.029619,-0.078534
 N,0,-3.119196,-0.342279,0.153841
 N,0,-4.335387,-2.224284,0.221089
 N,0,1.261157,-0.174227,0.159231
 C,0,4.01718,1.122234,0.034175
 H,0,4.944266,1.684435,-0.004695
 N,0,4.101205,-0.171572,0.128293
 C,0,5.372887,-0.92352,0.174052
 C,0,6.135231,-0.779606,-1.150362
 C,0,6.224763,-0.480442,1.370753
 H,0,5.081047,-1.966517,0.308748
 C,0,7.466555,-1.537032,-1.094775
 H,0,6.327508,0.284605,-1.329914
 H,0,5.514332,-1.143324,-1.973087
 C,0,7.55275,-1.244476,1.409178
 H,0,6.428735,0.592669,1.28079
 H,0,5.660042,-0.629718,2.294271
 C,0,8.322002,-1.088049,0.094035
 H,0,8.004952,-1.388828,-2.034862
 H,0,7.266873,-2.611988,-1.008786
 H,0,8.14947,-0.887163,2.253172
 H,0,7.353616,-2.308164,1.588066
 H,0,9.251053,-1.664359,0.128245
 H,0,8.602603,-0.035815,-0.03867
 H,0,-5.196353,-2.763197,0.189797
 H,0,-1.681636,1.085483,0.089654
 H,0,3.21216,-0.68417,0.164241
 Recover connectivity data from disk.
 ITRead=  0  0  0  0  0  0  0  0  0  0  0  0  0  0  0  0  0  0  0  0
 ITRead=  0  0  0  0  0  0  0  0  0  0  0  0  0  0  0  0  0  0  0  0
 ITRead=  0  0  0  0  0  0  0  0  0  0  0  0  0  0  0  0  0  0  0  0
 ITRead=  0  0  0  0
 MicOpt= -1 -1 -1 -1 -1 -1 -1 -1 -1 -1 -1 -1 -1 -1 -1 -1 -1 -1 -1 -1
 MicOpt= -1 -1 -1 -1 -1 -1 -1 -1 -1 -1 -1 -1 -1 -1 -1 -1 -1 -1 -1 -1
 MicOpt= -1 -1 -1 -1 -1 -1 -1 -1 -1 -1 -1 -1 -1 -1 -1 -1 -1 -1 -1 -1
 MicOpt= -1 -1 -1 -1
 NAtoms=     64 NQM=       64 NQMF=       0 NMMI=      0 NMMIF=      0
                NMic=       0 NMicF=      0.
                    Isotopes and Nuclear Properties:
 (Nuclear quadrupole moments (NQMom) in fm**2, nuclear magnetic moments (NMagM)
  in nuclear magnetons)

  Atom         1           2           3           4           5           6           7           8           9          10
 IAtWgt=          12          12          12          12          12          12          12           1           1           1
 AtmWgt=  12.0000000  12.0000000  12.0000000  12.0000000  12.0000000  12.0000000  12.0000000   1.0078250   1.0078250   1.0078250
 NucSpn=           0           0           0           0           0           0           0           1           1           1
 AtZEff=   3.6000000   3.6000000   3.6000000   3.6000000   3.6000000   3.6000000   3.6000000   1.0000000   1.0000000   1.0000000
 NQMom=    0.0000000   0.0000000   0.0000000   0.0000000   0.0000000   0.0000000   0.0000000   0.0000000   0.0000000   0.0000000
 NMagM=    0.0000000   0.0000000   0.0000000   0.0000000   0.0000000   0.0000000   0.0000000   2.7928460   2.7928460   2.7928460
 AtZNuc=   6.0000000   6.0000000   6.0000000   6.0000000   6.0000000   6.0000000   6.0000000   1.0000000   1.0000000   1.0000000

  Atom        11          12          13          14          15          16          17          18          19          20
 IAtWgt=          12          12          12          12          12          12          12           1           1           1
 AtmWgt=  12.0000000  12.0000000  12.0000000  12.0000000  12.0000000  12.0000000  12.0000000   1.0078250   1.0078250   1.0078250
 NucSpn=           0           0           0           0           0           0           0           1           1           1
 AtZEff=   3.6000000   3.6000000   3.6000000   3.6000000   3.6000000   3.6000000   3.6000000   1.0000000   1.0000000   1.0000000
 NQMom=    0.0000000   0.0000000   0.0000000   0.0000000   0.0000000   0.0000000   0.0000000   0.0000000   0.0000000   0.0000000
 NMagM=    0.0000000   0.0000000   0.0000000   0.0000000   0.0000000   0.0000000   0.0000000   2.7928460   2.7928460   2.7928460
 AtZNuc=   6.0000000   6.0000000   6.0000000   6.0000000   6.0000000   6.0000000   6.0000000   1.0000000   1.0000000   1.0000000

  Atom        21          22          23          24          25          26          27          28          29          30
 IAtWgt=          14          12          12          12          12          12          12           1           1          12
 AtmWgt=  14.0030740  12.0000000  12.0000000  12.0000000  12.0000000  12.0000000  12.0000000   1.0078250   1.0078250  12.0000000
 NucSpn=           2           0           0           0           0           0           0           1           1           0
 AtZEff=   4.5500000   3.6000000   3.6000000   3.6000000   3.6000000   3.6000000   3.6000000   1.0000000   1.0000000   3.6000000
 NQMom=    2.0440000   0.0000000   0.0000000   0.0000000   0.0000000   0.0000000   0.0000000   0.0000000   0.0000000   0.0000000
 NMagM=    0.4037610   0.0000000   0.0000000   0.0000000   0.0000000   0.0000000   0.0000000   2.7928460   2.7928460   0.0000000
 AtZNuc=   7.0000000   6.0000000   6.0000000   6.0000000   6.0000000   6.0000000   6.0000000   1.0000000   1.0000000   6.0000000

  Atom        31          32          33          34          35          36          37          38          39          40
 IAtWgt=           1           1           1          12           1           1           1          16          14          14
 AtmWgt=   1.0078250   1.0078250   1.0078250  12.0000000   1.0078250   1.0078250   1.0078250  15.9949146  14.0030740  14.0030740
 NucSpn=           1           1           1           0           1           1           1           0           2           2
 AtZEff=   1.0000000   1.0000000   1.0000000   3.6000000   1.0000000   1.0000000   1.0000000   5.6000000   4.5500000   4.5500000
 NQMom=    0.0000000   0.0000000   0.0000000   0.0000000   0.0000000   0.0000000   0.0000000   0.0000000   2.0440000   2.0440000
 NMagM=    2.7928460   2.7928460   2.7928460   0.0000000   2.7928460   2.7928460   2.7928460   0.0000000   0.4037610   0.4037610
 AtZNuc=   1.0000000   1.0000000   1.0000000   6.0000000   1.0000000   1.0000000   1.0000000   8.0000000   7.0000000   7.0000000

  Atom        41          42          43          44          45          46          47          48          49          50
 IAtWgt=          14          12           1          14          12          12          12           1          12           1
 AtmWgt=  14.0030740  12.0000000   1.0078250  14.0030740  12.0000000  12.0000000  12.0000000   1.0078250  12.0000000   1.0078250
 NucSpn=           2           0           1           2           0           0           0           1           0           1
 AtZEff=   4.5500000   3.6000000   1.0000000   4.5500000   3.6000000   3.6000000   3.6000000   1.0000000   3.6000000   1.0000000
 NQMom=    2.0440000   0.0000000   0.0000000   2.0440000   0.0000000   0.0000000   0.0000000   0.0000000   0.0000000   0.0000000
 NMagM=    0.4037610   0.0000000   2.7928460   0.4037610   0.0000000   0.0000000   0.0000000   2.7928460   0.0000000   2.7928460
 AtZNuc=   7.0000000   6.0000000   1.0000000   7.0000000   6.0000000   6.0000000   6.0000000   1.0000000   6.0000000   1.0000000

  Atom        51          52          53          54          55          56          57          58          59          60
 IAtWgt=           1          12           1           1          12           1           1           1           1           1
 AtmWgt=   1.0078250  12.0000000   1.0078250   1.0078250  12.0000000   1.0078250   1.0078250   1.0078250   1.0078250   1.0078250
 NucSpn=           1           0           1           1           0           1           1           1           1           1
 AtZEff=   1.0000000   3.6000000   1.0000000   1.0000000   3.6000000   1.0000000   1.0000000   1.0000000   1.0000000   1.0000000
 NQMom=    0.0000000   0.0000000   0.0000000   0.0000000   0.0000000   0.0000000   0.0000000   0.0000000   0.0000000   0.0000000
 NMagM=    2.7928460   0.0000000   2.7928460   2.7928460   0.0000000   2.7928460   2.7928460   2.7928460   2.7928460   2.7928460
 AtZNuc=   1.0000000   6.0000000   1.0000000   1.0000000   6.0000000   1.0000000   1.0000000   1.0000000   1.0000000   1.0000000

  Atom        61          62          63          64
 IAtWgt=           1           1           1           1
 AtmWgt=   1.0078250   1.0078250   1.0078250   1.0078250
 NucSpn=           1           1           1           1
 AtZEff=   1.0000000   1.0000000   1.0000000   1.0000000
 NQMom=    0.0000000   0.0000000   0.0000000   0.0000000
 NMagM=    2.7928460   2.7928460   2.7928460   2.7928460
 AtZNuc=   1.0000000   1.0000000   1.0000000   1.0000000
 Leave Link  101 at Fri Dec 14 14:01:42 2018, MaxMem=  1342177280 cpu:               7.1 elap:               0.5
 (Enter /gpfs/apps/hpc/Apps/Restricted/Gaussian/Rev_A.03/g16/l103.exe)

 GradGradGradGradGradGradGradGradGradGradGradGradGradGradGradGradGradGrad
 Berny optimization.
 Initialization pass.
                           ----------------------------
                           !    Initial Parameters    !
                           ! (Angstroms and Degrees)  !
 --------------------------                            --------------------------
 ! Name  Definition              Value          Derivative Info.                !
 --------------------------------------------------------------------------------
 ! R1    R(1,2)                  1.4169         estimate D2E/DX2                !
 ! R2    R(1,6)                  1.4147         estimate D2E/DX2                !
 ! R3    R(1,41)                 1.3713         estimate D2E/DX2                !
 ! R4    R(2,3)                  1.3908         estimate D2E/DX2                !
 ! R5    R(2,21)                 1.377          estimate D2E/DX2                !
 ! R6    R(3,4)                  1.4003         estimate D2E/DX2                !
 ! R7    R(3,8)                  1.0826         estimate D2E/DX2                !
 ! R8    R(4,5)                  1.3961         estimate D2E/DX2                !
 ! R9    R(4,9)                  1.0826         estimate D2E/DX2                !
 ! R10   R(5,6)                  1.409          estimate D2E/DX2                !
 ! R11   R(5,10)                 1.0838         estimate D2E/DX2                !
 ! R12   R(6,42)                 1.428          estimate D2E/DX2                !
 ! R13   R(7,16)                 1.4495         estimate D2E/DX2                !
 ! R14   R(7,21)                 1.3669         estimate D2E/DX2                !
 ! R15   R(7,41)                 1.3404         estimate D2E/DX2                !
 ! R16   R(11,12)                1.4193         estimate D2E/DX2                !
 ! R17   R(11,16)                1.4141         estimate D2E/DX2                !
 ! R18   R(11,39)                1.3762         estimate D2E/DX2                !
 ! R19   R(12,13)                1.3948         estimate D2E/DX2                !
 ! R20   R(12,40)                1.374          estimate D2E/DX2                !
 ! R21   R(13,14)                1.3943         estimate D2E/DX2                !
 ! R22   R(13,18)                1.0827         estimate D2E/DX2                !
 ! R23   R(14,15)                1.404          estimate D2E/DX2                !
 ! R24   R(14,19)                1.0832         estimate D2E/DX2                !
 ! R25   R(15,16)                1.3979         estimate D2E/DX2                !
 ! R26   R(15,20)                1.0826         estimate D2E/DX2                !
 ! R27   R(17,23)                1.4504         estimate D2E/DX2                !
 ! R28   R(17,39)                1.3382         estimate D2E/DX2                !
 ! R29   R(17,40)                1.3683         estimate D2E/DX2                !
 ! R30   R(21,63)                1.0201         estimate D2E/DX2                !
 ! R31   R(22,23)                1.4679         estimate D2E/DX2                !
 ! R32   R(22,27)                1.4606         estimate D2E/DX2                !
 ! R33   R(22,38)                1.2593         estimate D2E/DX2                !
 ! R34   R(23,24)                1.3841         estimate D2E/DX2                !
 ! R35   R(24,25)                1.4072         estimate D2E/DX2                !
 ! R36   R(24,28)                1.0838         estimate D2E/DX2                !
 ! R37   R(25,26)                1.4148         estimate D2E/DX2                !
 ! R38   R(25,30)                1.4986         estimate D2E/DX2                !
 ! R39   R(26,27)                1.3761         estimate D2E/DX2                !
 ! R40   R(26,29)                1.085          estimate D2E/DX2                !
 ! R41   R(27,34)                1.4953         estimate D2E/DX2                !
 ! R42   R(30,31)                1.094          estimate D2E/DX2                !
 ! R43   R(30,32)                1.0952         estimate D2E/DX2                !
 ! R44   R(30,33)                1.0903         estimate D2E/DX2                !
 ! R45   R(34,35)                1.093          estimate D2E/DX2                !
 ! R46   R(34,36)                1.0948         estimate D2E/DX2                !
 ! R47   R(34,37)                1.09           estimate D2E/DX2                !
 ! R48   R(40,62)                1.0162         estimate D2E/DX2                !
 ! R49   R(42,43)                1.0849         estimate D2E/DX2                !
 ! R50   R(42,44)                1.2999         estimate D2E/DX2                !
 ! R51   R(44,45)                1.4781         estimate D2E/DX2                !
 ! R52   R(44,64)                1.0269         estimate D2E/DX2                !
 ! R53   R(45,46)                1.5349         estimate D2E/DX2                !
 ! R54   R(45,47)                1.5343         estimate D2E/DX2                !
 ! R55   R(45,48)                1.0914         estimate D2E/DX2                !
 ! R56   R(46,49)                1.5327         estimate D2E/DX2                !
 ! R57   R(46,50)                1.0962         estimate D2E/DX2                !
 ! R58   R(46,51)                1.093          estimate D2E/DX2                !
 ! R59   R(47,52)                1.5326         estimate D2E/DX2                !
 ! R60   R(47,53)                1.096          estimate D2E/DX2                !
 ! R61   R(47,54)                1.0927         estimate D2E/DX2                !
 ! R62   R(49,55)                1.5319         estimate D2E/DX2                !
 ! R63   R(49,56)                1.0934         estimate D2E/DX2                !
 ! R64   R(49,57)                1.0967         estimate D2E/DX2                !
 ! R65   R(52,55)                1.5316         estimate D2E/DX2                !
 ! R66   R(52,58)                1.0937         estimate D2E/DX2                !
 ! R67   R(52,59)                1.0969         estimate D2E/DX2                !
 ! R68   R(55,60)                1.0938         estimate D2E/DX2                !
 ! R69   R(55,61)                1.0971         estimate D2E/DX2                !
 ! A1    A(2,1,6)              119.7756         estimate D2E/DX2                !
 ! A2    A(2,1,41)             110.6849         estimate D2E/DX2                !
 ! A3    A(6,1,41)             129.5376         estimate D2E/DX2                !
 ! A4    A(1,2,3)              122.2369         estimate D2E/DX2                !
 ! A5    A(1,2,21)             104.4263         estimate D2E/DX2                !
 ! A6    A(3,2,21)             133.3359         estimate D2E/DX2                !
 ! A7    A(2,3,4)              117.474          estimate D2E/DX2                !
 ! A8    A(2,3,8)              121.4236         estimate D2E/DX2                !
 ! A9    A(4,3,8)              121.1021         estimate D2E/DX2                !
 ! A10   A(3,4,5)              121.4888         estimate D2E/DX2                !
 ! A11   A(3,4,9)              119.2325         estimate D2E/DX2                !
 ! A12   A(5,4,9)              119.2784         estimate D2E/DX2                !
 ! A13   A(4,5,6)              121.4042         estimate D2E/DX2                !
 ! A14   A(4,5,10)             119.6594         estimate D2E/DX2                !
 ! A15   A(6,5,10)             118.9363         estimate D2E/DX2                !
 ! A16   A(1,6,5)              117.6199         estimate D2E/DX2                !
 ! A17   A(1,6,42)             122.0002         estimate D2E/DX2                !
 ! A18   A(5,6,42)             120.3786         estimate D2E/DX2                !
 ! A19   A(16,7,21)            121.5658         estimate D2E/DX2                !
 ! A20   A(16,7,41)            126.405          estimate D2E/DX2                !
 ! A21   A(21,7,41)            112.0281         estimate D2E/DX2                !
 ! A22   A(12,11,16)           119.9212         estimate D2E/DX2                !
 ! A23   A(12,11,39)           110.265          estimate D2E/DX2                !
 ! A24   A(16,11,39)           129.8102         estimate D2E/DX2                !
 ! A25   A(11,12,13)           122.415          estimate D2E/DX2                !
 ! A26   A(11,12,40)           104.5645         estimate D2E/DX2                !
 ! A27   A(13,12,40)           133.0205         estimate D2E/DX2                !
 ! A28   A(12,13,14)           116.8079         estimate D2E/DX2                !
 ! A29   A(12,13,18)           121.6148         estimate D2E/DX2                !
 ! A30   A(14,13,18)           121.5765         estimate D2E/DX2                !
 ! A31   A(13,14,15)           121.8529         estimate D2E/DX2                !
 ! A32   A(13,14,19)           119.2137         estimate D2E/DX2                !
 ! A33   A(15,14,19)           118.9323         estimate D2E/DX2                !
 ! A34   A(14,15,16)           121.6214         estimate D2E/DX2                !
 ! A35   A(14,15,20)           119.815          estimate D2E/DX2                !
 ! A36   A(16,15,20)           118.5634         estimate D2E/DX2                !
 ! A37   A(7,16,11)            120.8284         estimate D2E/DX2                !
 ! A38   A(7,16,15)            121.7911         estimate D2E/DX2                !
 ! A39   A(11,16,15)           117.3746         estimate D2E/DX2                !
 ! A40   A(23,17,39)           125.2317         estimate D2E/DX2                !
 ! A41   A(23,17,40)           122.922          estimate D2E/DX2                !
 ! A42   A(39,17,40)           111.8427         estimate D2E/DX2                !
 ! A43   A(2,21,7)             107.8859         estimate D2E/DX2                !
 ! A44   A(2,21,63)            130.0837         estimate D2E/DX2                !
 ! A45   A(7,21,63)            122.0205         estimate D2E/DX2                !
 ! A46   A(23,22,27)           117.7429         estimate D2E/DX2                !
 ! A47   A(23,22,38)           122.2435         estimate D2E/DX2                !
 ! A48   A(27,22,38)           120.0136         estimate D2E/DX2                !
 ! A49   A(17,23,22)           120.2961         estimate D2E/DX2                !
 ! A50   A(17,23,24)           119.9851         estimate D2E/DX2                !
 ! A51   A(22,23,24)           119.7162         estimate D2E/DX2                !
 ! A52   A(23,24,25)           121.6            estimate D2E/DX2                !
 ! A53   A(23,24,28)           118.9176         estimate D2E/DX2                !
 ! A54   A(25,24,28)           119.4823         estimate D2E/DX2                !
 ! A55   A(24,25,26)           119.2218         estimate D2E/DX2                !
 ! A56   A(24,25,30)           120.0915         estimate D2E/DX2                !
 ! A57   A(26,25,30)           120.6859         estimate D2E/DX2                !
 ! A58   A(25,26,27)           122.1897         estimate D2E/DX2                !
 ! A59   A(25,26,29)           118.5273         estimate D2E/DX2                !
 ! A60   A(27,26,29)           119.2808         estimate D2E/DX2                !
 ! A61   A(22,27,26)           119.5104         estimate D2E/DX2                !
 ! A62   A(22,27,34)           117.8924         estimate D2E/DX2                !
 ! A63   A(26,27,34)           122.5936         estimate D2E/DX2                !
 ! A64   A(25,30,31)           110.6553         estimate D2E/DX2                !
 ! A65   A(25,30,32)           110.4915         estimate D2E/DX2                !
 ! A66   A(25,30,33)           111.4858         estimate D2E/DX2                !
 ! A67   A(31,30,32)           106.7583         estimate D2E/DX2                !
 ! A68   A(31,30,33)           108.8444         estimate D2E/DX2                !
 ! A69   A(32,30,33)           108.4585         estimate D2E/DX2                !
 ! A70   A(27,34,35)           110.8742         estimate D2E/DX2                !
 ! A71   A(27,34,36)           110.6874         estimate D2E/DX2                !
 ! A72   A(27,34,37)           110.7672         estimate D2E/DX2                !
 ! A73   A(35,34,36)           106.5106         estimate D2E/DX2                !
 ! A74   A(35,34,37)           109.258          estimate D2E/DX2                !
 ! A75   A(36,34,37)           108.6222         estimate D2E/DX2                !
 ! A76   A(11,39,17)           105.2342         estimate D2E/DX2                !
 ! A77   A(12,40,17)           108.0919         estimate D2E/DX2                !
 ! A78   A(12,40,62)           130.7751         estimate D2E/DX2                !
 ! A79   A(17,40,62)           121.0781         estimate D2E/DX2                !
 ! A80   A(1,41,7)             104.973          estimate D2E/DX2                !
 ! A81   A(6,42,43)            118.8849         estimate D2E/DX2                !
 ! A82   A(6,42,44)            123.5269         estimate D2E/DX2                !
 ! A83   A(43,42,44)           117.5877         estimate D2E/DX2                !
 ! A84   A(42,44,45)           124.3459         estimate D2E/DX2                !
 ! A85   A(42,44,64)           116.3212         estimate D2E/DX2                !
 ! A86   A(45,44,64)           119.331          estimate D2E/DX2                !
 ! A87   A(44,45,46)           110.6651         estimate D2E/DX2                !
 ! A88   A(44,45,47)           110.7888         estimate D2E/DX2                !
 ! A89   A(44,45,48)           105.0661         estimate D2E/DX2                !
 ! A90   A(46,45,47)           111.7256         estimate D2E/DX2                !
 ! A91   A(46,45,48)           109.2021         estimate D2E/DX2                !
 ! A92   A(47,45,48)           109.1582         estimate D2E/DX2                !
 ! A93   A(45,46,49)           110.7189         estimate D2E/DX2                !
 ! A94   A(45,46,50)           108.6303         estimate D2E/DX2                !
 ! A95   A(45,46,51)           109.6422         estimate D2E/DX2                !
 ! A96   A(49,46,50)           109.4706         estimate D2E/DX2                !
 ! A97   A(49,46,51)           110.8717         estimate D2E/DX2                !
 ! A98   A(50,46,51)           107.4211         estimate D2E/DX2                !
 ! A99   A(45,47,52)           110.8971         estimate D2E/DX2                !
 ! A100  A(45,47,53)           108.787          estimate D2E/DX2                !
 ! A101  A(45,47,54)           109.4384         estimate D2E/DX2                !
 ! A102  A(52,47,53)           109.2025         estimate D2E/DX2                !
 ! A103  A(52,47,54)           111.009          estimate D2E/DX2                !
 ! A104  A(53,47,54)           107.4155         estimate D2E/DX2                !
 ! A105  A(46,49,55)           111.6147         estimate D2E/DX2                !
 ! A106  A(46,49,56)           109.2404         estimate D2E/DX2                !
 ! A107  A(46,49,57)           109.2118         estimate D2E/DX2                !
 ! A108  A(55,49,56)           110.6415         estimate D2E/DX2                !
 ! A109  A(55,49,57)           109.1538         estimate D2E/DX2                !
 ! A110  A(56,49,57)           106.8526         estimate D2E/DX2                !
 ! A111  A(47,52,55)           111.2698         estimate D2E/DX2                !
 ! A112  A(47,52,58)           109.2237         estimate D2E/DX2                !
 ! A113  A(47,52,59)           109.2828         estimate D2E/DX2                !
 ! A114  A(55,52,58)           110.8085         estimate D2E/DX2                !
 ! A115  A(55,52,59)           109.2852         estimate D2E/DX2                !
 ! A116  A(58,52,59)           106.8599         estimate D2E/DX2                !
 ! A117  A(49,55,52)           110.8524         estimate D2E/DX2                !
 ! A118  A(49,55,60)           110.1304         estimate D2E/DX2                !
 ! A119  A(49,55,61)           109.2734         estimate D2E/DX2                !
 ! A120  A(52,55,60)           110.2384         estimate D2E/DX2                !
 ! A121  A(52,55,61)           109.2864         estimate D2E/DX2                !
 ! A122  A(60,55,61)           106.9709         estimate D2E/DX2                !
 ! D1    D(6,1,2,3)              0.0051         estimate D2E/DX2                !
 ! D2    D(6,1,2,21)           179.7009         estimate D2E/DX2                !
 ! D3    D(41,1,2,3)          -179.5426         estimate D2E/DX2                !
 ! D4    D(41,1,2,21)            0.1532         estimate D2E/DX2                !
 ! D5    D(2,1,6,5)             -0.0326         estimate D2E/DX2                !
 ! D6    D(2,1,6,42)           179.5598         estimate D2E/DX2                !
 ! D7    D(41,1,6,5)           179.4188         estimate D2E/DX2                !
 ! D8    D(41,1,6,42)           -0.9888         estimate D2E/DX2                !
 ! D9    D(2,1,41,7)             0.1084         estimate D2E/DX2                !
 ! D10   D(6,1,41,7)          -179.3825         estimate D2E/DX2                !
 ! D11   D(1,2,3,4)              0.162          estimate D2E/DX2                !
 ! D12   D(1,2,3,8)            179.958          estimate D2E/DX2                !
 ! D13   D(21,2,3,4)          -179.433          estimate D2E/DX2                !
 ! D14   D(21,2,3,8)             0.363          estimate D2E/DX2                !
 ! D15   D(1,2,21,7)            -0.351          estimate D2E/DX2                !
 ! D16   D(1,2,21,63)         -179.2029         estimate D2E/DX2                !
 ! D17   D(3,2,21,7)           179.2952         estimate D2E/DX2                !
 ! D18   D(3,2,21,63)            0.4433         estimate D2E/DX2                !
 ! D19   D(2,3,4,5)             -0.308          estimate D2E/DX2                !
 ! D20   D(2,3,4,9)            179.9198         estimate D2E/DX2                !
 ! D21   D(8,3,4,5)            179.8953         estimate D2E/DX2                !
 ! D22   D(8,3,4,9)              0.1231         estimate D2E/DX2                !
 ! D23   D(3,4,5,6)              0.2913         estimate D2E/DX2                !
 ! D24   D(3,4,5,10)          -179.8235         estimate D2E/DX2                !
 ! D25   D(9,4,5,6)           -179.9366         estimate D2E/DX2                !
 ! D26   D(9,4,5,10)            -0.0514         estimate D2E/DX2                !
 ! D27   D(4,5,6,1)             -0.1123         estimate D2E/DX2                !
 ! D28   D(4,5,6,42)          -179.7116         estimate D2E/DX2                !
 ! D29   D(10,5,6,1)          -179.9983         estimate D2E/DX2                !
 ! D30   D(10,5,6,42)            0.4024         estimate D2E/DX2                !
 ! D31   D(1,6,42,43)         -178.7731         estimate D2E/DX2                !
 ! D32   D(1,6,42,44)            0.9726         estimate D2E/DX2                !
 ! D33   D(5,6,42,43)            0.8083         estimate D2E/DX2                !
 ! D34   D(5,6,42,44)         -179.446          estimate D2E/DX2                !
 ! D35   D(21,7,16,11)           1.1835         estimate D2E/DX2                !
 ! D36   D(21,7,16,15)        -179.7239         estimate D2E/DX2                !
 ! D37   D(41,7,16,11)        -178.394          estimate D2E/DX2                !
 ! D38   D(41,7,16,15)           0.6987         estimate D2E/DX2                !
 ! D39   D(16,7,21,2)         -179.1808         estimate D2E/DX2                !
 ! D40   D(16,7,21,63)          -0.2169         estimate D2E/DX2                !
 ! D41   D(41,7,21,2)            0.4523         estimate D2E/DX2                !
 ! D42   D(41,7,21,63)         179.4163         estimate D2E/DX2                !
 ! D43   D(16,7,41,1)          179.2692         estimate D2E/DX2                !
 ! D44   D(21,7,41,1)           -0.3425         estimate D2E/DX2                !
 ! D45   D(16,11,12,13)          0.9724         estimate D2E/DX2                !
 ! D46   D(16,11,12,40)       -179.0788         estimate D2E/DX2                !
 ! D47   D(39,11,12,13)       -179.6533         estimate D2E/DX2                !
 ! D48   D(39,11,12,40)          0.2955         estimate D2E/DX2                !
 ! D49   D(12,11,16,7)         178.4333         estimate D2E/DX2                !
 ! D50   D(12,11,16,15)         -0.6982         estimate D2E/DX2                !
 ! D51   D(39,11,16,7)          -0.8026         estimate D2E/DX2                !
 ! D52   D(39,11,16,15)       -179.9341         estimate D2E/DX2                !
 ! D53   D(12,11,39,17)         -0.4181         estimate D2E/DX2                !
 ! D54   D(16,11,39,17)        178.876          estimate D2E/DX2                !
 ! D55   D(11,12,13,14)         -0.4811         estimate D2E/DX2                !
 ! D56   D(11,12,13,18)        179.8406         estimate D2E/DX2                !
 ! D57   D(40,12,13,14)        179.5867         estimate D2E/DX2                !
 ! D58   D(40,12,13,18)         -0.0916         estimate D2E/DX2                !
 ! D59   D(11,12,40,17)         -0.0549         estimate D2E/DX2                !
 ! D60   D(11,12,40,62)        177.21           estimate D2E/DX2                !
 ! D61   D(13,12,40,17)        179.886          estimate D2E/DX2                !
 ! D62   D(13,12,40,62)         -2.8492         estimate D2E/DX2                !
 ! D63   D(12,13,14,15)         -0.246          estimate D2E/DX2                !
 ! D64   D(12,13,14,19)       -179.8688         estimate D2E/DX2                !
 ! D65   D(18,13,14,15)        179.4324         estimate D2E/DX2                !
 ! D66   D(18,13,14,19)         -0.1904         estimate D2E/DX2                !
 ! D67   D(13,14,15,16)          0.4941         estimate D2E/DX2                !
 ! D68   D(13,14,15,20)       -179.3278         estimate D2E/DX2                !
 ! D69   D(19,14,15,16)       -179.882          estimate D2E/DX2                !
 ! D70   D(19,14,15,20)          0.2961         estimate D2E/DX2                !
 ! D71   D(14,15,16,7)        -179.1262         estimate D2E/DX2                !
 ! D72   D(14,15,16,11)         -0.0036         estimate D2E/DX2                !
 ! D73   D(20,15,16,7)           0.6979         estimate D2E/DX2                !
 ! D74   D(20,15,16,11)        179.8205         estimate D2E/DX2                !
 ! D75   D(39,17,23,22)        174.2            estimate D2E/DX2                !
 ! D76   D(39,17,23,24)         -5.2202         estimate D2E/DX2                !
 ! D77   D(40,17,23,22)         -5.0519         estimate D2E/DX2                !
 ! D78   D(40,17,23,24)        175.5279         estimate D2E/DX2                !
 ! D79   D(23,17,39,11)       -178.9363         estimate D2E/DX2                !
 ! D80   D(40,17,39,11)          0.3871         estimate D2E/DX2                !
 ! D81   D(23,17,40,12)        179.13           estimate D2E/DX2                !
 ! D82   D(23,17,40,62)          1.5481         estimate D2E/DX2                !
 ! D83   D(39,17,40,12)         -0.2117         estimate D2E/DX2                !
 ! D84   D(39,17,40,62)       -177.7935         estimate D2E/DX2                !
 ! D85   D(27,22,23,17)       -177.8475         estimate D2E/DX2                !
 ! D86   D(27,22,23,24)          1.5742         estimate D2E/DX2                !
 ! D87   D(38,22,23,17)          2.1381         estimate D2E/DX2                !
 ! D88   D(38,22,23,24)       -178.4402         estimate D2E/DX2                !
 ! D89   D(23,22,27,26)         -1.1935         estimate D2E/DX2                !
 ! D90   D(23,22,27,34)        179.4813         estimate D2E/DX2                !
 ! D91   D(38,22,27,26)        178.8206         estimate D2E/DX2                !
 ! D92   D(38,22,27,34)         -0.5046         estimate D2E/DX2                !
 ! D93   D(17,23,24,25)        178.604          estimate D2E/DX2                !
 ! D94   D(17,23,24,28)         -1.4426         estimate D2E/DX2                !
 ! D95   D(22,23,24,25)         -0.8195         estimate D2E/DX2                !
 ! D96   D(22,23,24,28)        179.1339         estimate D2E/DX2                !
 ! D97   D(23,24,25,26)         -0.3509         estimate D2E/DX2                !
 ! D98   D(23,24,25,30)        179.959          estimate D2E/DX2                !
 ! D99   D(28,24,25,26)        179.696          estimate D2E/DX2                !
 ! D100  D(28,24,25,30)          0.0059         estimate D2E/DX2                !
 ! D101  D(24,25,26,27)          0.7524         estimate D2E/DX2                !
 ! D102  D(24,25,26,29)       -179.7986         estimate D2E/DX2                !
 ! D103  D(30,25,26,27)       -179.5594         estimate D2E/DX2                !
 ! D104  D(30,25,26,29)         -0.1104         estimate D2E/DX2                !
 ! D105  D(24,25,30,31)        -53.1735         estimate D2E/DX2                !
 ! D106  D(24,25,30,32)         64.8504         estimate D2E/DX2                !
 ! D107  D(24,25,30,33)       -174.4624         estimate D2E/DX2                !
 ! D108  D(26,25,30,31)        127.141          estimate D2E/DX2                !
 ! D109  D(26,25,30,32)       -114.8351         estimate D2E/DX2                !
 ! D110  D(26,25,30,33)          5.8521         estimate D2E/DX2                !
 ! D111  D(25,26,27,22)          0.0522         estimate D2E/DX2                !
 ! D112  D(25,26,27,34)        179.3443         estimate D2E/DX2                !
 ! D113  D(29,26,27,22)       -179.3928         estimate D2E/DX2                !
 ! D114  D(29,26,27,34)         -0.1007         estimate D2E/DX2                !
 ! D115  D(22,27,34,35)        -53.1633         estimate D2E/DX2                !
 ! D116  D(22,27,34,36)         64.8141         estimate D2E/DX2                !
 ! D117  D(22,27,34,37)       -174.6385         estimate D2E/DX2                !
 ! D118  D(26,27,34,35)        127.5338         estimate D2E/DX2                !
 ! D119  D(26,27,34,36)       -114.4888         estimate D2E/DX2                !
 ! D120  D(26,27,34,37)          6.0586         estimate D2E/DX2                !
 ! D121  D(6,42,44,45)         179.7121         estimate D2E/DX2                !
 ! D122  D(6,42,44,64)           0.214          estimate D2E/DX2                !
 ! D123  D(43,42,44,45)         -0.5392         estimate D2E/DX2                !
 ! D124  D(43,42,44,64)        179.9628         estimate D2E/DX2                !
 ! D125  D(42,44,45,46)        -65.3017         estimate D2E/DX2                !
 ! D126  D(42,44,45,47)         59.1948         estimate D2E/DX2                !
 ! D127  D(42,44,45,48)        176.9518         estimate D2E/DX2                !
 ! D128  D(64,44,45,46)        114.1822         estimate D2E/DX2                !
 ! D129  D(64,44,45,47)       -121.3213         estimate D2E/DX2                !
 ! D130  D(64,44,45,48)         -3.5643         estimate D2E/DX2                !
 ! D131  D(44,45,46,49)        178.9264         estimate D2E/DX2                !
 ! D132  D(44,45,46,50)         58.6884         estimate D2E/DX2                !
 ! D133  D(44,45,46,51)        -58.4277         estimate D2E/DX2                !
 ! D134  D(47,45,46,49)         54.9655         estimate D2E/DX2                !
 ! D135  D(47,45,46,50)        -65.2725         estimate D2E/DX2                !
 ! D136  D(47,45,46,51)        177.6115         estimate D2E/DX2                !
 ! D137  D(48,45,46,49)        -65.8891         estimate D2E/DX2                !
 ! D138  D(48,45,46,50)        173.8729         estimate D2E/DX2                !
 ! D139  D(48,45,46,51)         56.7569         estimate D2E/DX2                !
 ! D140  D(44,45,47,52)       -179.1937         estimate D2E/DX2                !
 ! D141  D(44,45,47,53)        -59.0772         estimate D2E/DX2                !
 ! D142  D(44,45,47,54)         58.0071         estimate D2E/DX2                !
 ! D143  D(46,45,47,52)        -55.3024         estimate D2E/DX2                !
 ! D144  D(46,45,47,53)         64.814          estimate D2E/DX2                !
 ! D145  D(46,45,47,54)       -178.1016         estimate D2E/DX2                !
 ! D146  D(48,45,47,52)         65.5777         estimate D2E/DX2                !
 ! D147  D(48,45,47,53)       -174.3058         estimate D2E/DX2                !
 ! D148  D(48,45,47,54)        -57.2215         estimate D2E/DX2                !
 ! D149  D(45,46,49,55)        -55.2932         estimate D2E/DX2                !
 ! D150  D(45,46,49,56)       -177.9707         estimate D2E/DX2                !
 ! D151  D(45,46,49,57)         65.491          estimate D2E/DX2                !
 ! D152  D(50,46,49,55)         64.4419         estimate D2E/DX2                !
 ! D153  D(50,46,49,56)        -58.2355         estimate D2E/DX2                !
 ! D154  D(50,46,49,57)       -174.7738         estimate D2E/DX2                !
 ! D155  D(51,46,49,55)       -177.2211         estimate D2E/DX2                !
 ! D156  D(51,46,49,56)         60.1014         estimate D2E/DX2                !
 ! D157  D(51,46,49,57)        -56.4368         estimate D2E/DX2                !
 ! D158  D(45,47,52,55)         55.6864         estimate D2E/DX2                !
 ! D159  D(45,47,52,58)        178.3336         estimate D2E/DX2                !
 ! D160  D(45,47,52,59)        -65.0886         estimate D2E/DX2                !
 ! D161  D(53,47,52,55)        -64.1823         estimate D2E/DX2                !
 ! D162  D(53,47,52,58)         58.465          estimate D2E/DX2                !
 ! D163  D(53,47,52,59)        175.0427         estimate D2E/DX2                !
 ! D164  D(54,47,52,55)        177.5718         estimate D2E/DX2                !
 ! D165  D(54,47,52,58)        -59.781          estimate D2E/DX2                !
 ! D166  D(54,47,52,59)         56.7968         estimate D2E/DX2                !
 ! D167  D(46,49,55,52)         56.0041         estimate D2E/DX2                !
 ! D168  D(46,49,55,60)        178.2722         estimate D2E/DX2                !
 ! D169  D(46,49,55,61)        -64.5014         estimate D2E/DX2                !
 ! D170  D(56,49,55,52)        177.8766         estimate D2E/DX2                !
 ! D171  D(56,49,55,60)        -59.8553         estimate D2E/DX2                !
 ! D172  D(56,49,55,61)         57.3712         estimate D2E/DX2                !
 ! D173  D(57,49,55,52)        -64.814          estimate D2E/DX2                !
 ! D174  D(57,49,55,60)         57.454          estimate D2E/DX2                !
 ! D175  D(57,49,55,61)        174.6805         estimate D2E/DX2                !
 ! D176  D(47,52,55,49)        -56.0488         estimate D2E/DX2                !
 ! D177  D(47,52,55,60)       -178.2539         estimate D2E/DX2                !
 ! D178  D(47,52,55,61)         64.4489         estimate D2E/DX2                !
 ! D179  D(58,52,55,49)       -177.7788         estimate D2E/DX2                !
 ! D180  D(58,52,55,60)         60.0161         estimate D2E/DX2                !
 ! D181  D(58,52,55,61)        -57.2811         estimate D2E/DX2                !
 ! D182  D(59,52,55,49)         64.7248         estimate D2E/DX2                !
 ! D183  D(59,52,55,60)        -57.4803         estimate D2E/DX2                !
 ! D184  D(59,52,55,61)       -174.7775         estimate D2E/DX2                !
 --------------------------------------------------------------------------------
 Trust Radius=3.00D-01 FncErr=1.00D-07 GrdErr=1.00D-07 EigMax=2.50D+02 EigMin=1.00D-04
 Number of steps in this run=    384 maximum allowed number of steps=    384.
 GradGradGradGradGradGradGradGradGradGradGradGradGradGradGradGradGradGrad

 Leave Link  103 at Fri Dec 14 14:01:42 2018, MaxMem=  1342177280 cpu:               0.6 elap:               0.1
 (Enter /gpfs/apps/hpc/Apps/Restricted/Gaussian/Rev_A.03/g16/l202.exe)
 Symmetry turned off by external request.
 Stoichiometry    C29H29N5O(1+,2)
 Framework group  C1[X(C29H29N5O)]
 Deg. of freedom   186
 Full point group                 C1      NOp   1
                          Input orientation:                          
 ---------------------------------------------------------------------
 Center     Atomic      Atomic             Coordinates (Angstroms)
 Number     Number       Type             X           Y           Z
 ---------------------------------------------------------------------
      1          6           0        1.531350    1.166252    0.057062
      2          6           0        0.330498    1.916953    0.013619
      3          6           0        0.325835    3.303245   -0.098565
      4          6           0        1.565884    3.949600   -0.172336
      5          6           0        2.764473    3.234973   -0.128753
      6          6           0        2.778243    1.830708   -0.014639
      7          6           0       -0.076573   -0.257536    0.176579
      8          1           0       -0.599830    3.863785   -0.131264
      9          1           0        1.595449    5.028070   -0.261511
     10          1           0        3.707685    3.765752   -0.185311
     11          6           0       -2.274930   -1.426107    0.234694
     12          6           0       -3.024293   -2.630442    0.282839
     13          6           0       -2.419725   -3.884058    0.374306
     14          6           0       -1.025984   -3.909200    0.406931
     15          6           0       -0.262064   -2.732829    0.345637
     16          6           0       -0.861821   -1.473170    0.258808
     17          6           0       -4.353830   -0.858368    0.142461
     18          1           0       -3.004225   -4.794588    0.412740
     19          1           0       -0.515876   -4.862305    0.475427
     20          1           0        0.818858   -2.791444    0.362494
     21          7           0       -0.667878    0.972257    0.097428
     22          6           0       -6.873178   -0.774369   -0.086634
     23          6           0       -5.580624   -0.090934    0.044010
     24          6           0       -5.534517    1.292295    0.060998
     25          6           0       -6.700579    2.070500   -0.061429
     26          6           0       -7.949805    1.423825   -0.212914
     27          6           0       -8.068349    0.052976   -0.229875
     28          1           0       -4.574781    1.783335    0.172260
     29          1           0       -8.841180    2.034774   -0.309654
     30          6           0       -6.611588    3.566278   -0.037792
     31          1           0       -6.070437    3.906679    0.849939
     32          1           0       -6.053714    3.930940   -0.906843
     33          1           0       -7.600493    4.025317   -0.044960
     34          6           0       -9.385451   -0.639875   -0.375092
     35          1           0       -9.354207   -1.369308   -1.188508
     36          1           0       -9.631158   -1.198081    0.534143
     37          1           0      -10.181407    0.079489   -0.567670
     38          8           0       -6.973287   -2.029619   -0.078534
     39          7           0       -3.119196   -0.342279    0.153841
     40          7           0       -4.335387   -2.224284    0.221089
     41          7           0        1.261157   -0.174227    0.159231
     42          6           0        4.017180    1.122234    0.034175
     43          1           0        4.944266    1.684435   -0.004695
     44          7           0        4.101205   -0.171572    0.128293
     45          6           0        5.372887   -0.923520    0.174052
     46          6           0        6.135231   -0.779606   -1.150362
     47          6           0        6.224763   -0.480442    1.370753
     48          1           0        5.081047   -1.966517    0.308748
     49          6           0        7.466555   -1.537032   -1.094775
     50          1           0        6.327508    0.284605   -1.329914
     51          1           0        5.514332   -1.143324   -1.973087
     52          6           0        7.552750   -1.244476    1.409178
     53          1           0        6.428735    0.592669    1.280790
     54          1           0        5.660042   -0.629718    2.294271
     55          6           0        8.322002   -1.088049    0.094035
     56          1           0        8.004952   -1.388828   -2.034862
     57          1           0        7.266873   -2.611988   -1.008786
     58          1           0        8.149470   -0.887163    2.253172
     59          1           0        7.353616   -2.308164    1.588066
     60          1           0        9.251053   -1.664359    0.128245
     61          1           0        8.602603   -0.035815   -0.038670
     62          1           0       -5.196353   -2.763197    0.189797
     63          1           0       -1.681636    1.085483    0.089654
     64          1           0        3.212160   -0.684170    0.164241
 ---------------------------------------------------------------------
 Rotational constants (GHZ):           0.2577056           0.0426552           0.0371991
 Leave Link  202 at Fri Dec 14 14:01:43 2018, MaxMem=  1342177280 cpu:               1.0 elap:               0.1
 (Enter /gpfs/apps/hpc/Apps/Restricted/Gaussian/Rev_A.03/g16/l716.exe)
 Electric field and nuclear coordinate derivatives read from checkpoint file.
 Dipole        = 2.05485602D+00 1.92061622D+00 9.06232932D-02
 Polarizability= 8.69619438D+02-4.94274583D+01 7.02047722D+02
                 1.95980957D+01-2.83929286D+01 2.13253460D+02
 Full mass-weighted force constant matrix:
 Low frequencies ---  -10.6109   -6.6264   -0.0027    0.0015    0.0025    7.7612
 Low frequencies ---   17.2123   25.9410   32.8529
 Diagonal vibrational polarizability:
      136.8327457      39.5180759     118.3391188
 Harmonic frequencies (cm**-1), IR intensities (KM/Mole), Raman scattering
 activities (A**4/AMU), depolarization ratios for plane and unpolarized
 incident light, reduced masses (AMU), force constants (mDyne/A),
 and normal coordinates:
                      1                      2                      3
                      A                      A                      A
 Frequencies --     15.9397                23.7661                32.4602
 Red. masses --      6.1964                 4.6347                 5.2664
 Frc consts  --      0.0009                 0.0015                 0.0033
 IR Inten    --      0.1173                 0.2982                 0.0766
  Atom  AN      X      Y      Z        X      Y      Z        X      Y      Z
     1   6    -0.00  -0.01  -0.10     0.00   0.00  -0.04    -0.03  -0.08   0.01
     2   6    -0.00  -0.02  -0.14     0.01   0.00  -0.05    -0.04  -0.10   0.02
     3   6    -0.00  -0.02  -0.12     0.01   0.00  -0.10    -0.06  -0.10   0.00
     4   6    -0.00  -0.01  -0.05     0.01  -0.01  -0.16    -0.08  -0.08  -0.03
     5   6    -0.00  -0.00  -0.00     0.01  -0.01  -0.15    -0.07  -0.06  -0.04
     6   6    -0.00  -0.01  -0.03     0.00  -0.00  -0.09    -0.04  -0.06  -0.02
     7   6    -0.00  -0.02  -0.16     0.00   0.01   0.02    -0.02  -0.10   0.04
     8   1    -0.00  -0.02  -0.15     0.01   0.00  -0.10    -0.07  -0.11   0.01
     9   1    -0.00  -0.01  -0.04     0.01  -0.01  -0.20    -0.09  -0.08  -0.05
    10   1    -0.00  -0.00   0.06     0.01  -0.01  -0.19    -0.08  -0.05  -0.07
    11   6    -0.00  -0.01  -0.12     0.00   0.01   0.03    -0.03  -0.07   0.03
    12   6    -0.01  -0.01  -0.08     0.01   0.01   0.01    -0.05  -0.05   0.01
    13   6    -0.01  -0.01  -0.10     0.01   0.01   0.00    -0.08  -0.06   0.01
    14   6    -0.01  -0.02  -0.14     0.01   0.01   0.02    -0.08  -0.09   0.01
    15   6    -0.00  -0.02  -0.17     0.00   0.01   0.03    -0.05  -0.11   0.03
    16   6    -0.00  -0.02  -0.15     0.00   0.01   0.04    -0.02  -0.09   0.04
    17   6    -0.00  -0.00  -0.03     0.00   0.01   0.01    -0.01  -0.02   0.01
    18   1    -0.01  -0.01  -0.07     0.01   0.01  -0.01    -0.09  -0.05  -0.00
    19   1    -0.01  -0.02  -0.15     0.01   0.01   0.02    -0.10  -0.10   0.01
    20   1    -0.00  -0.02  -0.19     0.00   0.01   0.04    -0.05  -0.13   0.03
    21   7    -0.00  -0.02  -0.17     0.00   0.01  -0.00    -0.03  -0.10   0.04
    22   6    -0.02   0.01   0.11     0.01  -0.00  -0.08    -0.01   0.06  -0.02
    23   6    -0.00   0.00   0.04    -0.00   0.00   0.02     0.01   0.02   0.00
    24   6     0.01   0.00   0.02    -0.02   0.00   0.12     0.06   0.01   0.01
    25   6     0.01   0.01   0.06    -0.03  -0.00   0.17     0.09   0.05   0.01
    26   6    -0.00   0.02   0.11    -0.02  -0.01   0.10     0.07   0.10  -0.01
    27   6    -0.01   0.02   0.14     0.01  -0.01  -0.04     0.02   0.10  -0.02
    28   1     0.02  -0.00  -0.03    -0.03   0.01   0.19     0.07  -0.02   0.03
    29   1    -0.00   0.02   0.13    -0.02  -0.01   0.14     0.09   0.13  -0.01
    30   6     0.02   0.01   0.05    -0.05  -0.00   0.29     0.13   0.05   0.01
    31   1     0.03   0.01   0.04    -0.10  -0.07   0.35     0.15   0.04   0.00
    32   1     0.01  -0.00   0.04    -0.01   0.07   0.35     0.14   0.03   0.00
    33   1     0.02   0.01   0.05    -0.06  -0.02   0.28     0.15   0.08   0.01
    34   6    -0.03   0.03   0.20     0.02  -0.01  -0.15    -0.00   0.15  -0.03
    35   1    -0.07   0.03   0.20     0.07   0.03  -0.18    -0.02   0.16  -0.04
    36   1     0.01   0.02   0.21    -0.03  -0.06  -0.19    -0.02   0.14  -0.04
    37   1    -0.03   0.03   0.24     0.03  -0.01  -0.16     0.02   0.18  -0.03
    38   8    -0.03   0.01   0.15     0.03  -0.01  -0.19    -0.04   0.06  -0.04
    39   7    -0.00  -0.01  -0.08     0.00   0.01   0.03    -0.00  -0.05   0.03
    40   7    -0.01  -0.01  -0.03     0.01   0.01  -0.01    -0.04  -0.02   0.00
    41   7    -0.00  -0.02  -0.12     0.00   0.01   0.01    -0.02  -0.09   0.02
    42   6     0.00   0.00   0.04     0.00  -0.01  -0.08    -0.03  -0.03  -0.03
    43   1    -0.00   0.01   0.10     0.01  -0.01  -0.12    -0.04   0.00  -0.06
    44   7     0.01   0.00   0.02    -0.00  -0.00  -0.03     0.02  -0.02  -0.01
    45   6     0.01   0.01   0.08    -0.01  -0.01   0.01     0.06   0.04  -0.02
    46   6     0.05   0.01   0.10     0.03  -0.01   0.03     0.06   0.10  -0.01
    47   6    -0.03   0.03   0.10    -0.04  -0.00   0.03     0.03   0.06  -0.00
    48   1     0.02   0.01   0.08    -0.01  -0.00   0.00     0.11   0.02  -0.04
    49   6     0.06   0.01   0.14     0.02  -0.02   0.07     0.10   0.16  -0.01
    50   1     0.05   0.01   0.10     0.04  -0.01   0.03     0.02   0.12   0.02
    51   1     0.08   0.00   0.08     0.05  -0.01   0.01     0.09   0.10  -0.02
    52   6    -0.03   0.03   0.14    -0.04  -0.01   0.07     0.07   0.13  -0.01
    53   1    -0.02   0.03   0.10    -0.03  -0.00   0.02    -0.02   0.07   0.02
    54   1    -0.05   0.03   0.08    -0.06   0.01   0.01     0.03   0.02  -0.01
    55   6     0.02   0.03   0.17    -0.00  -0.02   0.09     0.07   0.18   0.00
    56   1     0.08   0.01   0.16     0.05  -0.03   0.08     0.10   0.21  -0.01
    57   1     0.06   0.01   0.14     0.02  -0.02   0.07     0.15   0.15  -0.03
    58   1    -0.05   0.04   0.16    -0.06  -0.00   0.08     0.04   0.14   0.00
    59   1    -0.03   0.03   0.14    -0.05  -0.00   0.07     0.11   0.11  -0.02
    60   1     0.02   0.03   0.20    -0.01  -0.02   0.11     0.10   0.23   0.00
    61   1     0.01   0.03   0.17     0.01  -0.02   0.09     0.02   0.20   0.02
    62   1    -0.01  -0.00   0.03     0.01   0.00  -0.06    -0.05  -0.00  -0.01
    63   1    -0.00  -0.02  -0.17     0.00   0.01  -0.01    -0.03  -0.12   0.04
    64   1     0.01  -0.01  -0.04    -0.01   0.00   0.01     0.04  -0.06   0.02
                      4                      5                      6
                      A                      A                      A
 Frequencies --     43.2741                52.2993                60.7694
 Red. masses --      4.3651                 5.0872                 5.1365
 Frc consts  --      0.0048                 0.0082                 0.0112
 IR Inten    --      1.0025                 0.6270                 2.8225
  Atom  AN      X      Y      Z        X      Y      Z        X      Y      Z
     1   6    -0.00  -0.01   0.03    -0.04   0.05   0.01    -0.01   0.00  -0.09
     2   6    -0.00  -0.02  -0.09    -0.06   0.01   0.01    -0.02  -0.01  -0.08
     3   6    -0.00  -0.02  -0.14    -0.10   0.01  -0.01    -0.02   0.00   0.05
     4   6    -0.00  -0.01  -0.04    -0.12   0.04  -0.03    -0.02   0.02   0.17
     5   6    -0.00  -0.00   0.09    -0.10   0.07  -0.03    -0.02   0.03   0.15
     6   6    -0.00  -0.00   0.11    -0.06   0.08  -0.01    -0.01   0.02   0.02
     7   6    -0.00  -0.01  -0.04     0.01  -0.00   0.02    -0.00  -0.02  -0.17
     8   1    -0.01  -0.03  -0.23    -0.12  -0.02  -0.01    -0.02   0.00   0.07
     9   1    -0.00  -0.02  -0.07    -0.15   0.04  -0.05    -0.03   0.03   0.28
    10   1     0.00   0.00   0.16    -0.11   0.10  -0.05    -0.02   0.04   0.25
    11   6    -0.01  -0.01  -0.04     0.05  -0.05   0.00     0.01  -0.02  -0.02
    12   6    -0.01  -0.00  -0.00     0.05  -0.06  -0.02     0.00  -0.01   0.14
    13   6    -0.01  -0.00   0.05     0.07  -0.05  -0.04     0.00   0.00   0.22
    14   6    -0.01  -0.00   0.07     0.07  -0.03  -0.03     0.01  -0.00   0.12
    15   6    -0.01  -0.01   0.03     0.06  -0.02  -0.00     0.01  -0.01  -0.04
    16   6    -0.01  -0.01  -0.03     0.05  -0.03   0.01     0.01  -0.02  -0.10
    17   6    -0.00  -0.00  -0.05     0.05  -0.06  -0.00     0.01  -0.01   0.06
    18   1    -0.02   0.00   0.08     0.09  -0.06  -0.07     0.00   0.01   0.35
    19   1    -0.02  -0.00   0.11     0.08  -0.03  -0.04     0.00  -0.00   0.18
    20   1    -0.01  -0.01   0.05     0.06  -0.01   0.01     0.01  -0.02  -0.11
    21   7    -0.00  -0.02  -0.14    -0.03  -0.02   0.02    -0.01  -0.02  -0.14
    22   6    -0.00   0.01  -0.04     0.05   0.01   0.00     0.02   0.00  -0.02
    23   6    -0.00   0.00  -0.03     0.07  -0.03   0.01     0.01  -0.00   0.04
    24   6    -0.00   0.00   0.00     0.11  -0.03   0.01     0.02  -0.00   0.05
    25   6    -0.00   0.01   0.04     0.14   0.01   0.01     0.03   0.00   0.02
    26   6    -0.00   0.01   0.04     0.12   0.04   0.01     0.03   0.01  -0.04
    27   6    -0.00   0.01  -0.01     0.08   0.05   0.01     0.03   0.01  -0.07
    28   1     0.00  -0.00   0.01     0.13  -0.06   0.02     0.02  -0.01   0.09
    29   1    -0.01   0.01   0.07     0.14   0.07   0.01     0.04   0.01  -0.07
    30   6    -0.01   0.00   0.10     0.19   0.00  -0.00     0.03   0.00   0.05
    31   1    -0.03  -0.03   0.12     0.21  -0.01  -0.01     0.01  -0.02   0.07
    32   1     0.01   0.04   0.12     0.18  -0.02  -0.01     0.05   0.02   0.07
    33   1    -0.01   0.00   0.09     0.20   0.03   0.01     0.03   0.01   0.04
    34   6    -0.00   0.02  -0.02     0.06   0.09   0.01     0.03   0.02  -0.15
    35   1    -0.01   0.03  -0.04     0.03   0.10   0.00     0.09   0.01  -0.14
    36   1    -0.01  -0.00  -0.03     0.05   0.08   0.01    -0.03   0.03  -0.16
    37   1    -0.00   0.02  -0.01     0.08   0.11   0.03     0.05   0.02  -0.22
    38   8    -0.00   0.01  -0.06     0.03   0.01  -0.01     0.01   0.00  -0.01
    39   7    -0.00  -0.01  -0.07     0.05  -0.06   0.02     0.01  -0.02  -0.05
    40   7    -0.01  -0.00  -0.01     0.05  -0.06  -0.03     0.00  -0.00   0.18
    41   7    -0.00  -0.01   0.05     0.00   0.04   0.02    -0.00  -0.01  -0.16
    42   6     0.00   0.01   0.18    -0.05   0.08  -0.01    -0.01   0.02   0.03
    43   1    -0.00   0.03   0.23    -0.05   0.08  -0.01    -0.01   0.02   0.13
    44   7     0.02   0.01   0.17    -0.07   0.08   0.01    -0.02   0.01  -0.08
    45   6     0.02   0.02   0.11    -0.10   0.04   0.02    -0.02   0.00  -0.06
    46   6    -0.10  -0.05   0.03    -0.12  -0.04   0.01     0.02   0.04  -0.03
    47   6     0.13   0.07   0.02    -0.07   0.05  -0.00    -0.06  -0.04  -0.02
    48   1     0.04   0.02   0.19    -0.14   0.06   0.06    -0.03   0.00  -0.10
    49   6    -0.10  -0.04  -0.06    -0.15  -0.10   0.02     0.02   0.03  -0.01
    50   1    -0.13  -0.05  -0.04    -0.07  -0.05  -0.03     0.02   0.04   0.00
    51   1    -0.18  -0.09   0.11    -0.14  -0.04   0.03     0.05   0.06  -0.06
    52   6     0.13   0.06  -0.08    -0.11  -0.01   0.01    -0.06  -0.04   0.00
    53   1     0.13   0.06  -0.03    -0.02   0.04  -0.05    -0.05  -0.04   0.02
    54   1     0.21   0.10   0.07    -0.08   0.12   0.00    -0.09  -0.06  -0.04
    55   6     0.01   0.01  -0.16    -0.12  -0.10  -0.00    -0.02  -0.00   0.03
    56   1    -0.18  -0.07  -0.11    -0.15  -0.16   0.01     0.05   0.06   0.01
    57   1    -0.09  -0.04  -0.00    -0.21  -0.09   0.06     0.01   0.03  -0.05
    58   1     0.21   0.09  -0.15    -0.09  -0.01  -0.01    -0.09  -0.07   0.03
    59   1     0.15   0.07  -0.02    -0.16   0.00   0.05    -0.07  -0.05  -0.04
    60   1     0.02   0.01  -0.22    -0.15  -0.15   0.01    -0.02  -0.01   0.04
    61   1    -0.00   0.00  -0.22    -0.07  -0.12  -0.04    -0.01  -0.00   0.07
    62   1    -0.01   0.00  -0.00     0.05  -0.06  -0.03    -0.00  -0.00   0.21
    63   1    -0.00  -0.02  -0.17    -0.04  -0.06   0.02    -0.01  -0.03  -0.12
    64   1     0.02   0.00   0.12    -0.09   0.10   0.01    -0.02   0.01  -0.17
                      7                      8                      9
                      A                      A                      A
 Frequencies --     70.2318                80.8083               108.1359
 Red. masses --      3.6643                 4.2132                 3.5603
 Frc consts  --      0.0106                 0.0162                 0.0245
 IR Inten    --      0.0899                 4.1696                 1.3388
  Atom  AN      X      Y      Z        X      Y      Z        X      Y      Z
     1   6     0.00  -0.01  -0.04     0.00  -0.01  -0.02     0.00   0.01  -0.03
     2   6     0.00  -0.01   0.03    -0.00  -0.01   0.05     0.02   0.04   0.01
     3   6    -0.00  -0.01   0.08    -0.01   0.00   0.13     0.07   0.04   0.04
     4   6    -0.01  -0.00   0.05    -0.01   0.01   0.12     0.10   0.00   0.03
     5   6    -0.01  -0.00  -0.01    -0.01   0.01   0.03     0.08  -0.04  -0.01
     6   6    -0.00  -0.01  -0.05    -0.00  -0.00  -0.04     0.02  -0.04  -0.04
     7   6     0.00  -0.01  -0.02     0.00  -0.01  -0.02    -0.02   0.04  -0.02
     8   1    -0.01  -0.01   0.13    -0.01   0.00   0.20     0.10   0.08   0.08
     9   1    -0.01  -0.00   0.08    -0.02   0.01   0.19     0.13   0.00   0.05
    10   1    -0.01  -0.00  -0.02    -0.01   0.01   0.02     0.09  -0.07  -0.01
    11   6    -0.01   0.00   0.04    -0.00  -0.01  -0.06    -0.00   0.00  -0.00
    12   6    -0.02   0.01   0.02    -0.01  -0.00  -0.03     0.02  -0.01   0.00
    13   6    -0.02  -0.00  -0.06    -0.01   0.00   0.08     0.05   0.00   0.01
    14   6    -0.02  -0.02  -0.14    -0.02   0.00   0.14     0.05   0.03  -0.00
    15   6    -0.02  -0.02  -0.12    -0.01  -0.01   0.09     0.03   0.05  -0.01
    16   6    -0.01  -0.01  -0.03    -0.00  -0.01  -0.01    -0.01   0.04  -0.01
    17   6    -0.01   0.02   0.11    -0.00  -0.01  -0.13    -0.01  -0.03   0.00
    18   1    -0.03   0.00  -0.08    -0.02   0.01   0.13     0.07  -0.01   0.01
    19   1    -0.03  -0.02  -0.22    -0.02   0.01   0.24     0.07   0.05  -0.00
    20   1    -0.01  -0.03  -0.18    -0.01  -0.01   0.14     0.03   0.08  -0.02
    21   7     0.00  -0.01   0.04     0.00  -0.01   0.05    -0.00   0.06   0.01
    22   6    -0.00   0.00   0.03    -0.01   0.00  -0.06    -0.01  -0.01  -0.01
    23   6    -0.01   0.01   0.09    -0.00  -0.00  -0.11    -0.00  -0.03   0.00
    24   6    -0.02   0.01   0.08     0.00  -0.00  -0.09     0.02  -0.03   0.01
    25   6    -0.02   0.01   0.01    -0.01   0.00   0.01     0.04  -0.01   0.01
    26   6    -0.01  -0.00  -0.06    -0.02   0.01   0.08     0.03   0.01   0.01
    27   6    -0.00  -0.00  -0.05    -0.02   0.01   0.05     0.00   0.01   0.01
    28   1    -0.03   0.02   0.11     0.01  -0.01  -0.12     0.03  -0.05   0.01
    29   1    -0.01  -0.01  -0.11    -0.02   0.01   0.16     0.04   0.02   0.02
    30   6    -0.03   0.01  -0.02    -0.01  -0.00   0.06     0.07  -0.02   0.00
    31   1    -0.02   0.03  -0.04    -0.03  -0.04   0.09     0.09  -0.02  -0.00
    32   1    -0.04  -0.01  -0.04     0.02   0.04   0.09     0.07  -0.03  -0.00
    33   1    -0.03   0.00  -0.03    -0.01  -0.00   0.06     0.08   0.01   0.01
    34   6     0.01  -0.02  -0.13    -0.03   0.02   0.14    -0.01   0.03   0.01
    35   1     0.08  -0.05  -0.10    -0.12   0.06   0.09    -0.04   0.05  -0.01
    36   1    -0.05   0.02  -0.13     0.05  -0.04   0.13    -0.01   0.02   0.00
    37   1     0.02  -0.03  -0.22    -0.05   0.03   0.26     0.00   0.05   0.03
    38   8     0.00   0.00   0.04    -0.01   0.00  -0.09    -0.02  -0.01  -0.04
    39   7    -0.01   0.01   0.10     0.00  -0.01  -0.13    -0.02  -0.01  -0.00
    40   7    -0.01   0.02   0.08    -0.01  -0.00  -0.09     0.01  -0.03   0.01
    41   7     0.00  -0.02  -0.07     0.00  -0.01  -0.06    -0.03   0.02  -0.04
    42   6     0.01   0.01  -0.03     0.01   0.01  -0.08    -0.02  -0.10  -0.02
    43   1    -0.00   0.03  -0.01    -0.00   0.03  -0.07     0.01  -0.14  -0.03
    44   7     0.03   0.01  -0.00     0.02   0.01  -0.09    -0.07  -0.10   0.02
    45   6     0.04   0.03   0.05     0.03   0.03  -0.02    -0.08  -0.11   0.04
    46   6    -0.01  -0.13   0.01     0.04  -0.10  -0.03    -0.11  -0.12   0.01
    47   6     0.08   0.16  -0.03     0.03   0.13  -0.06    -0.09  -0.05   0.03
    48   1     0.05   0.04   0.18     0.04   0.04   0.07    -0.07  -0.11   0.07
    49   6    -0.02  -0.14   0.05     0.03  -0.12   0.06    -0.03   0.03   0.02
    50   1    -0.00  -0.15  -0.11     0.06  -0.12  -0.11    -0.22  -0.12  -0.05
    51   1    -0.04  -0.21   0.07     0.05  -0.16  -0.00    -0.10  -0.23   0.05
    52   6     0.07   0.14   0.02     0.01   0.11   0.03     0.00   0.12  -0.01
    53   1     0.10   0.14  -0.15     0.05   0.12  -0.16    -0.21  -0.02   0.05
    54   1     0.10   0.28   0.00     0.01   0.24  -0.05    -0.06  -0.13   0.03
    55   6     0.03  -0.02  -0.02     0.02  -0.03   0.03    -0.06   0.22  -0.03
    56   1    -0.04  -0.26   0.02     0.04  -0.23   0.05    -0.07   0.05  -0.01
    57   1    -0.04  -0.13   0.18    -0.00  -0.11   0.16     0.11   0.01   0.08
    58   1     0.10   0.22  -0.04     0.01   0.17   0.01    -0.02   0.20  -0.02
    59   1     0.05   0.16   0.14    -0.02   0.13   0.13     0.15   0.10  -0.00
    60   1     0.02  -0.03   0.01     0.01  -0.05   0.09     0.04   0.39  -0.04
    61   1     0.04  -0.04  -0.15     0.05  -0.05  -0.07    -0.26   0.27  -0.07
    62   1    -0.02   0.02   0.06    -0.01  -0.00  -0.07     0.02  -0.05   0.00
    63   1     0.00  -0.00   0.08     0.00  -0.01   0.05     0.00   0.08   0.02
    64   1     0.04  -0.00  -0.02     0.03   0.00  -0.09    -0.09  -0.07   0.02
                     10                     11                     12
                      A                      A                      A
 Frequencies --    114.6198               120.0762               137.8412
 Red. masses --      4.9671                 4.9778                 4.4082
 Frc consts  --      0.0384                 0.0423                 0.0493
 IR Inten    --      1.1750                18.7366                 6.1791
  Atom  AN      X      Y      Z        X      Y      Z        X      Y      Z
     1   6     0.00   0.00   0.03     0.02  -0.04  -0.01     0.00  -0.00  -0.10
     2   6     0.00   0.00   0.03    -0.00  -0.07   0.01     0.00   0.01   0.07
     3   6     0.00   0.00   0.02    -0.04  -0.07   0.03    -0.00   0.01   0.16
     4   6     0.00  -0.00  -0.00    -0.06  -0.04   0.01    -0.00   0.01  -0.00
     5   6     0.00  -0.00  -0.02    -0.04  -0.01  -0.01    -0.01  -0.00  -0.17
     6   6     0.00  -0.00   0.00    -0.01  -0.00  -0.02     0.00  -0.00  -0.16
     7   6     0.00   0.00   0.02     0.06  -0.08  -0.00     0.00  -0.00  -0.04
     8   1     0.00   0.00   0.02    -0.06  -0.09   0.04     0.00   0.03   0.31
     9   1     0.01  -0.00  -0.02    -0.09  -0.03   0.02    -0.01   0.01   0.02
    10   1     0.00  -0.01  -0.05    -0.05   0.02  -0.02    -0.01  -0.01  -0.26
    11   6     0.00  -0.01  -0.09     0.06   0.01  -0.01    -0.00  -0.00  -0.04
    12   6     0.01  -0.01  -0.09     0.00   0.05  -0.00    -0.00  -0.00   0.04
    13   6     0.01  -0.00  -0.02    -0.06   0.02   0.00     0.00   0.00   0.07
    14   6     0.00   0.00   0.07    -0.07  -0.06  -0.01     0.00   0.00   0.01
    15   6     0.00   0.01   0.07    -0.00  -0.09  -0.01     0.00  -0.00  -0.06
    16   6     0.00  -0.00  -0.01     0.05  -0.07  -0.01    -0.00  -0.00  -0.06
    17   6     0.00  -0.01  -0.09     0.09   0.11  -0.02    -0.00  -0.01  -0.02
    18   1     0.01  -0.00  -0.01    -0.12   0.05   0.01     0.00   0.00   0.14
    19   1     0.00   0.01   0.15    -0.12  -0.08  -0.01     0.00   0.00   0.02
    20   1     0.00   0.01   0.15    -0.01  -0.15  -0.01     0.00  -0.00  -0.09
    21   7     0.00   0.00   0.03     0.03  -0.09   0.02     0.00   0.01   0.11
    22   6    -0.01   0.00   0.09     0.12   0.05  -0.00    -0.01  -0.01  -0.02
    23   6     0.00  -0.00  -0.03     0.09   0.11  -0.03    -0.00  -0.01  -0.04
    24   6     0.01  -0.00  -0.04     0.01   0.12  -0.04     0.00  -0.01  -0.05
    25   6     0.01   0.00   0.00    -0.05   0.05  -0.02     0.00  -0.01  -0.02
    26   6     0.01   0.00  -0.08    -0.01  -0.02   0.00     0.00   0.00  -0.02
    27   6     0.01   0.00  -0.08     0.07  -0.03   0.01    -0.01   0.00  -0.01
    28   1     0.01  -0.00  -0.05    -0.02   0.18  -0.06     0.00  -0.01  -0.05
    29   1     0.02   0.01  -0.14    -0.05  -0.07   0.02     0.00   0.00  -0.00
    30   6    -0.01  -0.00   0.17    -0.16   0.05   0.01     0.01  -0.01   0.04
    31   1    -0.18  -0.11   0.32    -0.22   0.08   0.03    -0.07  -0.06   0.11
    32   1     0.16   0.11   0.33    -0.16   0.12   0.04     0.09   0.03   0.11
    33   1    -0.01  -0.01   0.05    -0.20  -0.03  -0.02     0.01  -0.00  -0.02
    34   6     0.02   0.01  -0.20     0.12  -0.13   0.05    -0.02   0.01   0.02
    35   1     0.16  -0.11  -0.08     0.17  -0.15   0.07    -0.05   0.02   0.02
    36   1    -0.15   0.15  -0.15     0.19  -0.14   0.07     0.01   0.01   0.02
    37   1     0.07  -0.01  -0.44     0.06  -0.20   0.06    -0.02   0.02   0.05
    38   8    -0.04   0.01   0.37     0.16   0.04   0.01    -0.01  -0.00   0.01
    39   7     0.01  -0.01  -0.11     0.11   0.06  -0.02    -0.00  -0.01  -0.06
    40   7     0.01  -0.01  -0.11     0.03   0.11  -0.00    -0.00  -0.00   0.05
    41   7     0.00   0.00   0.04     0.06  -0.05  -0.01     0.00  -0.01  -0.15
    42   6    -0.00  -0.01  -0.03    -0.01  -0.01  -0.01     0.00   0.01  -0.07
    43   1    -0.00  -0.02  -0.06    -0.00  -0.03  -0.02     0.01  -0.00  -0.18
    44   7    -0.01  -0.01  -0.02    -0.05  -0.01   0.01     0.01   0.03   0.18
    45   6    -0.01  -0.01  -0.01    -0.08  -0.03   0.02     0.01   0.03   0.13
    46   6    -0.01  -0.02  -0.01    -0.10  -0.04   0.01    -0.06   0.11   0.11
    47   6    -0.02   0.01  -0.01    -0.08  -0.03   0.02     0.08  -0.05   0.11
    48   1    -0.01  -0.01  -0.00    -0.09  -0.03   0.02     0.01   0.02   0.09
    49   6     0.00  -0.01   0.00    -0.06   0.03   0.00    -0.08   0.07  -0.04
    50   1    -0.02  -0.02  -0.03    -0.14  -0.03  -0.02    -0.03   0.11   0.18
    51   1    -0.00  -0.04  -0.01    -0.10  -0.08   0.03    -0.11   0.19   0.11
    52   6    -0.01   0.03  -0.00    -0.05   0.04  -0.00     0.07  -0.09  -0.02
    53   1    -0.03   0.01  -0.02    -0.14  -0.02   0.05     0.09  -0.04   0.14
    54   1    -0.02   0.01  -0.02    -0.07  -0.08   0.02     0.14  -0.08   0.14
    55   6    -0.01   0.03  -0.00    -0.08   0.10  -0.02     0.01  -0.05  -0.05
    56   1     0.00  -0.01   0.00    -0.08   0.04  -0.01    -0.13   0.13  -0.06
    57   1     0.01  -0.01   0.02    -0.00   0.02   0.02    -0.10   0.07  -0.11
    58   1    -0.01   0.04  -0.00    -0.05   0.06  -0.01     0.13  -0.15  -0.03
    59   1     0.01   0.03   0.01     0.02   0.03  -0.02     0.04  -0.09  -0.06
    60   1     0.00   0.04   0.01    -0.03   0.18  -0.03    -0.02  -0.11  -0.14
    61   1    -0.03   0.03  -0.02    -0.17   0.13  -0.02     0.06  -0.06  -0.00
    62   1    -0.00  -0.00   0.03    -0.00   0.16  -0.01    -0.00  -0.01   0.07
    63   1     0.00  -0.00   0.00     0.02  -0.13   0.02     0.00   0.01   0.14
    64   1    -0.01  -0.00   0.01    -0.07   0.01   0.02     0.01   0.02   0.22
                     13                     14                     15
                      A                      A                      A
 Frequencies --    154.0265               167.6015               169.7776
 Red. masses --      2.2909                 2.0142                 1.6138
 Frc consts  --      0.0320                 0.0333                 0.0274
 IR Inten    --      0.1449                 0.4069                 1.5191
  Atom  AN      X      Y      Z        X      Y      Z        X      Y      Z
     1   6    -0.00   0.00   0.03    -0.00  -0.01  -0.11    -0.00  -0.01  -0.08
     2   6    -0.00   0.01   0.01    -0.00  -0.01  -0.08    -0.00  -0.00  -0.06
     3   6     0.00   0.00  -0.03    -0.00   0.00  -0.00    -0.00  -0.00  -0.01
     4   6     0.00  -0.00  -0.02    -0.00   0.01   0.06    -0.00   0.00   0.04
     5   6     0.00  -0.00   0.02    -0.00   0.00   0.04    -0.00   0.00   0.03
     6   6    -0.00   0.00   0.03    -0.00  -0.00  -0.05    -0.00  -0.00  -0.04
     7   6    -0.01   0.01   0.02    -0.00  -0.00  -0.01    -0.00  -0.00  -0.01
     8   1     0.00   0.00  -0.07    -0.00   0.00   0.04    -0.00   0.00   0.02
     9   1     0.01  -0.00  -0.05     0.00   0.01   0.14    -0.00   0.01   0.10
    10   1     0.00  -0.00   0.02    -0.00   0.01   0.10     0.00   0.01   0.08
    11   6    -0.00   0.00   0.06    -0.00   0.00   0.07    -0.00   0.00   0.07
    12   6    -0.00   0.00   0.08     0.00  -0.00  -0.03     0.00  -0.00  -0.02
    13   6     0.00  -0.00   0.02     0.00  -0.00  -0.06     0.00  -0.00  -0.05
    14   6     0.01  -0.00  -0.08    -0.00   0.00   0.03    -0.00   0.00   0.02
    15   6     0.00   0.00  -0.08    -0.00   0.01   0.09    -0.00   0.00   0.07
    16   6    -0.00   0.00   0.01    -0.00   0.00   0.08    -0.00   0.00   0.06
    17   6    -0.00  -0.00   0.03    -0.00   0.00   0.01     0.00   0.00   0.01
    18   1     0.01  -0.00   0.01     0.00  -0.01  -0.14     0.00  -0.01  -0.11
    19   1     0.01  -0.01  -0.16     0.00   0.00   0.04    -0.00   0.00   0.01
    20   1     0.00  -0.00  -0.14    -0.00   0.01   0.11    -0.00   0.00   0.07
    21   7    -0.00   0.01   0.00    -0.00  -0.00  -0.04    -0.00  -0.00  -0.03
    22   6    -0.00  -0.00  -0.05     0.00   0.00  -0.01     0.00   0.00   0.01
    23   6     0.00  -0.01  -0.07     0.00   0.00   0.00     0.00   0.00  -0.01
    24   6     0.01  -0.01  -0.13    -0.00   0.00   0.01     0.00   0.00  -0.02
    25   6     0.01  -0.00  -0.10     0.00   0.00  -0.02     0.00   0.00  -0.02
    26   6     0.01   0.00  -0.10     0.01   0.00  -0.04     0.00  -0.00  -0.01
    27   6     0.00  -0.00  -0.04     0.00   0.00  -0.01     0.00  -0.00  -0.00
    28   1     0.01  -0.01  -0.11    -0.00   0.00   0.03     0.00   0.00  -0.03
    29   1     0.01   0.00  -0.08     0.01  -0.00  -0.07     0.00  -0.00  -0.01
    30   6     0.00  -0.01   0.13     0.00   0.00   0.02    -0.00  -0.00   0.01
    31   1    -0.36  -0.18   0.42    -0.09  -0.03   0.08    -0.07  -0.02   0.06
    32   1     0.37   0.15   0.43     0.09   0.02   0.09     0.06   0.02   0.06
    33   1     0.01  -0.00  -0.18     0.00   0.00  -0.06    -0.00  -0.00  -0.05
    34   6    -0.02   0.01   0.10    -0.01  -0.00   0.06     0.01  -0.00  -0.03
    35   1    -0.12  -0.01   0.11     0.12  -0.38   0.41    -0.15   0.39  -0.39
    36   1     0.07   0.03   0.13    -0.19   0.42   0.27     0.24  -0.44  -0.24
    37   1    -0.03   0.01   0.17     0.05  -0.06  -0.40    -0.07   0.05   0.48
    38   8    -0.01  -0.00  -0.00     0.00  -0.00  -0.02    -0.01   0.00   0.05
    39   7    -0.01  -0.00   0.04    -0.00   0.01   0.11    -0.00   0.01   0.09
    40   7    -0.00  -0.00   0.09     0.00  -0.01  -0.09     0.00  -0.00  -0.06
    41   7    -0.01   0.01   0.03    -0.00  -0.01  -0.08    -0.00  -0.00  -0.06
    42   6    -0.00  -0.00   0.02    -0.00   0.00   0.01     0.00   0.00   0.00
    43   1    -0.00   0.00   0.03    -0.00   0.01   0.05    -0.00   0.00   0.04
    44   7    -0.00  -0.00  -0.02     0.00   0.00   0.01     0.00   0.00   0.01
    45   6     0.00  -0.00  -0.02     0.00   0.00   0.02     0.00   0.00   0.01
    46   6     0.01  -0.01  -0.02    -0.01   0.01   0.01    -0.01   0.01   0.01
    47   6    -0.01   0.01  -0.02     0.01  -0.01   0.02     0.01  -0.00   0.01
    48   1     0.00  -0.00  -0.01     0.00   0.00   0.01     0.00   0.00   0.01
    49   6     0.01  -0.01   0.00    -0.01   0.01  -0.01    -0.01   0.01  -0.00
    50   1     0.01  -0.01  -0.02    -0.01   0.01   0.02    -0.01   0.01   0.01
    51   1     0.02  -0.02  -0.02    -0.01   0.02   0.02    -0.01   0.01   0.01
    52   6    -0.01   0.01   0.00     0.01  -0.01  -0.00     0.01  -0.01  -0.00
    53   1    -0.01   0.01  -0.02     0.01  -0.01   0.02     0.01  -0.00   0.02
    54   1    -0.02   0.02  -0.02     0.02  -0.01   0.02     0.01  -0.01   0.01
[...]
 ! A10   A(3,4,5)                0.0406                  1.7                    !
 ! A11   A(3,4,9)               -0.04                    1.6                    !
 --------------------------------------------------------------------------------
                           ----------------------------
                           ! Normal Mode   182        !
 --------------------------                            --------------------------
 ! Name  Definition              Value          Relative Weight (%)             !
 --------------------------------------------------------------------------------
 ! R19   R(12,13)               -0.022                   1.0                    !
 ! R21   R(13,14)               -0.0524                  2.4                    !
 ! R22   R(13,18)                0.4876                 21.9                    !
 ! R23   R(14,15)               -0.0566                  2.5                    !
 ! R24   R(14,19)                0.7227                 32.4                    !
 ! R25   R(15,16)               -0.026                   1.2                    !
 ! R26   R(15,20)                0.647                  29.0                    !
 ! A27   A(13,12,40)             0.0141                  0.6                    !
 ! A29   A(12,13,18)            -0.0148                  0.7                    !
 ! A34   A(14,15,16)             0.0152                  0.7                    !
 ! A36   A(16,15,20)            -0.019                   0.9                    !
 ! A38   A(7,16,15)              0.0187                  0.8                    !
 ! A39   A(11,16,15)            -0.0173                  0.8                    !
 --------------------------------------------------------------------------------
                           ----------------------------
                           ! Normal Mode   183        !
 --------------------------                            --------------------------
 ! Name  Definition              Value          Relative Weight (%)             !
 --------------------------------------------------------------------------------
 ! R4    R(2,3)                 -0.0301                  1.4                    !
 ! R6    R(3,4)                 -0.0637                  2.9                    !
 ! R7    R(3,8)                  0.6614                 30.4                    !
 ! R8    R(4,5)                 -0.045                   2.1                    !
 ! R9    R(4,9)                  0.8203                 37.7                    !
 ! R11   R(5,10)                 0.2587                 11.9                    !
 ! R36   R(24,28)                0.0251                  1.2                    !
 ! R49   R(42,43)               -0.0273                  1.3                    !
 ! A4    A(1,2,3)               -0.017                   0.8                    !
 ! A6    A(3,2,21)               0.0188                  0.9                    !
 ! A8    A(2,3,8)               -0.018                   0.8                    !
 ! A10   A(3,4,5)                0.0204                  0.9                    !
 ! A12   A(5,4,9)               -0.0167                  0.8                    !
 ! A14   A(4,5,10)               0.018                   0.8                    !
 --------------------------------------------------------------------------------
                           ----------------------------
                           ! Normal Mode   184        !
 --------------------------                            --------------------------
 ! Name  Definition              Value          Relative Weight (%)             !
 --------------------------------------------------------------------------------
 ! R30   R(21,63)               -0.0151                  0.9                    !
 ! R49   R(42,43)                0.0648                  3.8                    !
 ! R50   R(42,44)                0.0331                  1.9                    !
 ! R51   R(44,45)                0.0353                  2.1                    !
 ! R52   R(44,64)               -1.0684                 62.9                    !
 ! A82   A(6,42,44)             -0.0245                  1.4                    !
 ! A83   A(43,42,44)             0.0298                  1.8                    !
 ! A84   A(42,44,45)            -0.0499                  2.9                    !
 ! A86   A(45,44,64)             0.0526                  3.1                    !
 ! A88   A(44,45,47)             0.0124                  0.7                    !
 ! A89   A(44,45,48)            -0.025                   1.5                    !
 ! D131  D(44,45,46,49)          0.0236                  1.4                    !
 ! D132  D(44,45,46,50)          0.0233                  1.4                    !
 ! D133  D(44,45,46,51)          0.0237                  1.4                    !
 ! D140  D(44,45,47,52)         -0.0221                  1.3                    !
 ! D141  D(44,45,47,53)         -0.0219                  1.3                    !
 ! D142  D(44,45,47,54)         -0.0224                  1.3                    !
 --------------------------------------------------------------------------------
                           ----------------------------
                           ! Normal Mode   185        !
 --------------------------                            --------------------------
 ! Name  Definition              Value          Relative Weight (%)             !
 --------------------------------------------------------------------------------
 ! R5    R(2,21)                 0.0496                  3.4                    !
 ! R14   R(7,21)                 0.0435                  3.0                    !
 ! R30   R(21,63)               -1.0726                 72.8                    !
 ! R48   R(40,62)               -0.0225                  1.5                    !
 ! A5    A(1,2,21)               0.0236                  1.6                    !
 ! A6    A(3,2,21)              -0.0249                  1.7                    !
 ! A19   A(16,7,21)             -0.025                   1.7                    !
 ! A21   A(21,7,41)              0.0248                  1.7                    !
 ! A43   A(2,21,7)              -0.0489                  3.3                    !
 ! A44   A(2,21,63)              0.0522                  3.5                    !
 --------------------------------------------------------------------------------
                           ----------------------------
                           ! Normal Mode   186        !
 --------------------------                            --------------------------
 ! Name  Definition              Value          Relative Weight (%)             !
 --------------------------------------------------------------------------------
 ! R20   R(12,40)                0.0488                  3.4                    !
 ! R29   R(17,40)                0.0425                  2.9                    !
 ! R30   R(21,63)                0.0226                  1.6                    !
 ! R48   R(40,62)               -1.0714                 73.6                    !
 ! A26   A(11,12,40)             0.0232                  1.6                    !
 ! A27   A(13,12,40)            -0.0244                  1.7                    !
 ! A41   A(23,17,40)            -0.0245                  1.7                    !
 ! A42   A(39,17,40)             0.0241                  1.7                    !
 ! A77   A(12,40,17)            -0.0479                  3.3                    !
 ! A78   A(12,40,62)             0.053                   3.6                    !
 --------------------------------------------------------------------------------
 -------------------------------------------------------------------
 Center     Atomic                   Forces (Hartrees/Bohr)
 Number     Number              X              Y              Z
 -------------------------------------------------------------------
      1        6          -0.000000560    0.000001841   -0.000014319
      2        6          -0.000004340    0.000000169   -0.000024035
      3        6          -0.000004134   -0.000002120   -0.000042938
      4        6          -0.000005001   -0.000001472   -0.000050462
      5        6          -0.000004391    0.000001232   -0.000040603
      6        6          -0.000003172    0.000004111   -0.000023272
      7        6          -0.000001922    0.000001497    0.000003513
      8        1          -0.000005519   -0.000002946   -0.000050130
      9        1          -0.000006741   -0.000001402   -0.000064295
     10        1          -0.000004935    0.000002026   -0.000047385
     11        6           0.000001031   -0.000001266    0.000016616
     12        6           0.000002644   -0.000000185    0.000032417
     13        6           0.000004366    0.000000410    0.000048364
     14        6           0.000005354    0.000003649    0.000048995
     15        6           0.000003254    0.000003575    0.000034471
     16        6           0.000004059    0.000002052    0.000017584
     17        6          -0.000000457   -0.000006864    0.000009413
     18        1           0.000006325    0.000001090    0.000059666
     19        1           0.000006404    0.000004667    0.000061620
     20        1           0.000003471    0.000005338    0.000035457
     21        7          -0.000000718    0.000000051   -0.000015148
     22        6           0.000000212   -0.000010940    0.000007292
     23        6           0.000001861   -0.000006860   -0.000001480
     24        6          -0.000002400   -0.000009558   -0.000019206
     25        6          -0.000004564   -0.000009908   -0.000030043
     26        6          -0.000000129   -0.000013391   -0.000022180
     27        6          -0.000000296   -0.000015350   -0.000004577
     28        1          -0.000002065   -0.000004221   -0.000025181
     29        1          -0.000003312   -0.000016252   -0.000029864
     30        6          -0.000004855   -0.000009538   -0.000048884
     31        1          -0.000005543    0.000002134   -0.000052911
     32        1          -0.000005035   -0.000020288   -0.000053161
     33        1          -0.000005114   -0.000011403   -0.000055115
     34        6           0.000001167   -0.000018328    0.000003902
     35        1           0.000002292   -0.000027807    0.000013374
     36        1           0.000001646   -0.000006410    0.000010988
     37        1           0.000000203   -0.000021561   -0.000005644
     38        8           0.000002855   -0.000009586    0.000022481
     39        7           0.000000935   -0.000001935    0.000002140
     40        7           0.000004346   -0.000001656    0.000026509
     41        7          -0.000000298    0.000002941    0.000002227
     42        6           0.000000587    0.000003333   -0.000013207
     43        1          -0.000003052    0.000006127   -0.000019956
     44        7          -0.000001363    0.000006104    0.000002723
     45        6           0.000000526    0.000010322    0.000012834
     46        6           0.000001306   -0.000007064    0.000012679
     47        6           0.000000867    0.000024758    0.000007926
     48        1           0.000002478    0.000009651    0.000026590
     49        6           0.000002693   -0.000004419    0.000022290
     50        1           0.000000128   -0.000009259   -0.000001942
     51        1           0.000002297   -0.000018282    0.000016454
     52        6           0.000001115    0.000028094    0.000018615
     53        1          -0.000001452    0.000024782   -0.000005524
     54        1          -0.000000368    0.000036342    0.000010077
     55        6           0.000001585    0.000010901    0.000017184
     56        1           0.000002527   -0.000015957    0.000020349
     57        1           0.000003731   -0.000003737    0.000035810
     58        1          -0.000000104    0.000039011    0.000013799
     59        1           0.000002445    0.000029507    0.000032035
     60        1           0.000002125    0.000013746    0.000024316
     61        1           0.000000108    0.000010827    0.000003246
     62        1           0.000003477   -0.000005616    0.000031968
     63        1          -0.000000724   -0.000001744   -0.000014482
     64        1           0.000002144    0.000007038    0.000010020
 -------------------------------------------------------------------
 Cartesian Forces:  Max     0.000064295 RMS     0.000018865
 FormGI is forming the generalized inverse of G from B-inverse, IUseBI=4.
 GSVD:  received Info=                   1 from GESDD.
 Leave Link  716 at Fri Dec 14 14:01:44 2018, MaxMem=  1342177280 cpu:              25.7 elap:               1.7
 (Enter /gpfs/apps/hpc/Apps/Restricted/Gaussian/Rev_A.03/g16/l9999.exe)

 ----------------------------------------------------------------------

 Electric dipole moment (input orientation):
 (Debye = 10**-18 statcoulomb cm , SI units = C m)
                  (au)            (Debye)         (10**-30 SI)
   Tot        0.281415D+01      0.715284D+01      0.238593D+02
   x          0.205486D+01      0.522292D+01      0.174218D+02
   y          0.192062D+01      0.488172D+01      0.162837D+02
   z          0.906233D-01      0.230341D+00      0.768336D+00

 Dipole polarizability, Alpha (input orientation).
 (esu units = cm**3 , SI units = C**2 m**2 J**-1)
 Alpha(0;0):
               (au)            (10**-24 esu)      (10**-40 SI)
   iso        0.594974D+03      0.881660D+02      0.980979D+02
   aniso      0.599840D+03      0.888871D+02      0.989003D+02
   xx         0.869619D+03      0.128864D+03      0.143381D+03
   yx        -0.494275D+02     -0.732439D+01     -0.814949D+01
   yy         0.702048D+03      0.104033D+03      0.115752D+03
   zx         0.195981D+02      0.290414D+01      0.323129D+01
   zy        -0.283929D+02     -0.420740D+01     -0.468136D+01
   zz         0.213253D+03      0.316009D+02      0.351607D+02

 ----------------------------------------------------------------------

 Dipole orientation:
     6          0.25627839         -0.26135052          3.62064505
     6         -1.46578527          1.66873782          2.92918707
     6         -2.58003520          3.25522805          4.70384431
     6         -1.93503063          2.88926339          7.24405638
     6         -0.24813986          0.99846700          7.97892536
     6          0.88816487         -0.61745873          6.19377192
     6         -0.07864736         -0.42493309         -0.42706155
     1         -3.89201785          4.72319976          4.14750554
     1         -2.76891649          4.09564674          8.67034159
     1          0.20736755          0.76127315          9.96153276
     6         -1.10111868          0.29401323         -4.96406206
     6         -0.75339514         -0.33326232         -7.54839144
     6          0.81647019         -2.30277689         -8.32541293
     6          2.06771963         -3.64250908         -6.43269156
     6          1.77695221         -3.04055420         -3.86514132
     6          0.19956912         -1.07514421         -3.07340536
     6         -3.39112237          2.89838920         -7.10603738
     1          1.06015933         -2.76327270        -10.30392202
     1          3.30881041         -5.18459427         -6.95387929
     1          2.79470539         -4.10925955         -2.44819525
     7         -1.63165487          1.49189297          0.33828563
     6         -5.45333014          5.57949534        -10.48798183
     6         -5.07625006          4.94044203         -7.81505831
     6         -6.31956048          6.31084107         -5.96643548
     6         -7.92594663          8.33957629         -6.57922253
     6         -8.26822254          9.00409730         -9.14621808
     6         -7.10242312          7.71258930        -11.07882525
     1         -6.04426811          5.80092355         -4.00206664
     1         -9.50650111         10.57565182         -9.59412564
     6         -9.24193708          9.77898525         -4.52586546
     1        -10.28304561          8.49333409         -3.28611312
     1         -7.86579572         10.76897893         -3.33865604
     1        -10.55432049         11.16647245         -5.29881978
     6         -7.47323102          8.38306988        -13.79865225
     1         -5.65678902          8.64723314        -14.74579900
     1         -8.44304272          6.85574352        -14.80228692
     1         -8.59100440         10.10359577        -13.98090328
     8         -4.41073606          4.35871995        -12.24453678
     7         -2.74971253          2.29246197         -4.73612113
     7         -2.23657062          1.36373376         -8.83744305
     7          1.09144011         -1.53665164          1.52520225
     6          2.59908605         -2.54543271          6.99256926
     1          2.98678582         -2.75814256          8.99452684
     7          3.72639011         -4.08512343          5.44560113
     6          5.51110638         -6.08411381          6.23332698
     6          7.90378805         -4.92229174          7.39026321
     6          4.23386601         -7.94526483          8.05306112
     1          6.01020014         -7.07313418          4.49366016
     6          9.73443019         -6.99405252          8.25381947
     1          7.35627319         -3.76258503          9.01717770
     1          8.80361280         -3.67190048          6.01435378
     6          6.09116937         -9.99869937          8.90244599
     1          3.56529590         -6.90254307          9.71304335
     1          2.57980452         -8.77590842          7.13750444
     6          8.46595331         -8.84216109         10.08561662
     1         11.38828281         -6.11913454          9.13066194
     1         10.41408651         -8.03747617          6.59713546
     1          5.14575002        -11.26110358         10.23802558
     1          6.63285870        -11.15075137          7.26670394
     1          9.79333227        -10.33152389         10.62638076
     1          7.94541684         -7.83587606         11.82180947
     1         -2.48829623          1.63075674        -10.72239939
     1         -2.65040441          2.54423686         -0.91499855
     1          3.33222129         -3.85191477          3.55993046

 Electric dipole moment (dipole orientation):
 (Debye = 10**-18 statcoulomb cm , SI units = C m)
                  (au)            (Debye)         (10**-30 SI)
   Tot        0.281415D+01      0.715284D+01      0.238593D+02
   x          0.000000D+00      0.000000D+00      0.000000D+00
   y          0.000000D+00      0.000000D+00      0.000000D+00
   z          0.281415D+01      0.715284D+01      0.238593D+02

 Dipole polarizability, Alpha (dipole orientation).
 (esu units = cm**3 , SI units = C**2 m**2 J**-1)
 Alpha(0;0):
               (au)            (10**-24 esu)      (10**-40 SI)
   iso        0.594974D+03      0.881660D+02      0.980979D+02
   aniso      0.599840D+03      0.888871D+02      0.989003D+02
   xx         0.469820D+03      0.696201D+02      0.774629D+02
   yx        -0.304871D+03     -0.451773D+02     -0.502665D+02
   yy         0.573805D+03      0.850291D+02      0.946076D+02
   zx         0.762118D+02      0.112934D+02      0.125656D+02
   zy        -0.491981D+02     -0.729041D+01     -0.811168D+01
   zz         0.741296D+03      0.109849D+03      0.122223D+03

 ----------------------------------------------------------------------

 This type of calculation cannot be archived.


 IN THE WOODS WE RETURN TO REASON AND FAITH.

                                 -- EMERSON
 Job cpu time:       0 days  0 hours  0 minutes 41.6 seconds.
 Elapsed time:       0 days  0 hours  0 minutes  2.9 seconds.
 File lengths (MBytes):  RWF=     72 Int=      0 D2E=      0 Chk=     76 Scr=      8
 Normal termination of Gaussian 16 at Fri Dec 14 14:01:44 2018.
