 Entering Gaussian System, Link 0=g16
 Initial command:
 /gpfs/apps/hpc/Apps/Restricted/Gaussian/Rev_A.03/g16/l1.exe "/gpfs/scratch60/fas/hammes_schiffer/jg2487/c42n01/Gau-61522.inp" -scrdir="/gpfs/scratch60/fas/hammes_schiffer/jg2487/c42n01/"
 Entering Link 1 = /gpfs/apps/hpc/Apps/Restricted/Gaussian/Rev_A.03/g16/l1.exe PID=     61523.
  
 Copyright (c) 1988,1990,1992,1993,1995,1998,2003,2009,2016,
            Gaussian, Inc.  All Rights Reserved.
  
 This is part of the Gaussian(R) 16 program.  It is based on
 the Gaussian(R) 09 system (copyright 2009, Gaussian, Inc.),
 the Gaussian(R) 03 system (copyright 2003, Gaussian, Inc.),
 the Gaussian(R) 98 system (copyright 1998, Gaussian, Inc.),
 the Gaussian(R) 94 system (copyright 1995, Gaussian, Inc.),
 the Gaussian 92(TM) system (copyright 1992, Gaussian, Inc.),
 the Gaussian 90(TM) system (copyright 1990, Gaussian, Inc.),
 the Gaussian 88(TM) system (copyright 1988, Gaussian, Inc.),
 the Gaussian 86(TM) system (copyright 1986, Carnegie Mellon
 University), and the Gaussian 82(TM) system (copyright 1983,
 Carnegie Mellon University). Gaussian is a federally registered
 trademark of Gaussian, Inc.
  
 This software contains proprietary and confidential information,
 including trade secrets, belonging to Gaussian, Inc.
  
 This software is provided under written license and may be
 used, copied, transmitted, or stored only in accord with that
 written license.
  
 The following legend is applicable only to US Government
 contracts under FAR:
  
                    RESTRICTED RIGHTS LEGEND
  
 Use, reproduction and disclosure by the US Government is
 subject to restrictions as set forth in subparagraphs (a)
 and (c) of the Commercial Computer Software - Restricted
 Rights clause in FAR 52.227-19.
  
 Gaussian, Inc.
 340 Quinnipiac St., Bldg. 40, Wallingford CT 06492
  
  
 ---------------------------------------------------------------
 Warning -- This program may not be used in any manner that
 competes with the business of Gaussian, Inc. or will provide
 assistance to any competitor of Gaussian, Inc.  The licensee
 of this program is prohibited from giving any competitor of
 Gaussian, Inc. access to this program.  By using this program,
 the user acknowledges that Gaussian, Inc. is engaged in the
 business of creating and licensing software in the field of
 computational chemistry and represents and warrants to the
 licensee that it is not a competitor of Gaussian, Inc. and that
 it will not use this program in any manner prohibited above.
 ---------------------------------------------------------------
  

 Cite this work as:
 Gaussian 16, Revision A.03,
 M. J. Frisch, G. W. Trucks, H. B. Schlegel, G. E. Scuseria, 
 M. A. Robb, J. R. Cheeseman, G. Scalmani, V. Barone, 
 G. A. Petersson, H. Nakatsuji, X. Li, M. Caricato, A. V. Marenich, 
 J. Bloino, B. G. Janesko, R. Gomperts, B. Mennucci, H. P. Hratchian, 
 J. V. Ortiz, A. F. Izmaylov, J. L. Sonnenberg, D. Williams-Young, 
 F. Ding, F. Lipparini, F. Egidi, J. Goings, B. Peng, A. Petrone, 
 T. Henderson, D. Ranasinghe, V. G. Zakrzewski, J. Gao, N. Rega, 
 G. Zheng, W. Liang, M. Hada, M. Ehara, K. Toyota, R. Fukuda, 
 J. Hasegawa, M. Ishida, T. Nakajima, Y. Honda, O. Kitao, H. Nakai, 
 T. Vreven, K. Throssell, J. A. Montgomery, Jr., J. E. Peralta, 
 F. Ogliaro, M. J. Bearpark, J. J. Heyd, E. N. Brothers, K. N. Kudin, 
 V. N. Staroverov, T. A. Keith, R. Kobayashi, J. Normand, 
 K. Raghavachari, A. P. Rendell, J. C. Burant, S. S. Iyengar, 
 J. Tomasi, M. Cossi, J. M. Millam, M. Klene, C. Adamo, R. Cammi, 
 J. W. Ochterski, R. L. Martin, K. Morokuma, O. Farkas, 
 J. B. Foresman, and D. J. Fox, Gaussian, Inc., Wallingford CT, 2016.
 
 ******************************************
 Gaussian 16:  ES64L-G16RevA.03 25-Dec-2016
                21-Dec-2018 
 ******************************************
 %chk=cyclohexyl-monoBIP-2PT.chk
 %mem=10GB
 %nprocshared=16
 Will use up to   16 processors via shared memory.
 ----------------------------------------------------------------------
 #p opt=tight freq=internalmodes b3lyp/6-31g(d,p) scrf=(cpcm,solvent=di
 chloromethane,read) nosymm empiricaldispersion=gd3bj int=grid=ultrafin
 e
 ----------------------------------------------------------------------
 1/7=10,18=20,19=15,26=6,38=1,40=2/1,3;
 2/9=110,12=2,15=1,17=6,18=5,40=1/2;
 3/5=1,6=6,7=101,11=2,25=1,30=1,70=2103,71=1,72=9,74=-5,75=-5,124=41/1,2,3;
 4//1;
 5/5=2,38=5,53=9/2;
 6/7=2,8=2,9=2,10=2,28=1/1;
 7/30=1/1,2,3,16;
 1/7=10,18=20,19=15,26=6/3(2);
 2/9=110,15=1/2;
 99//99;
 2/9=110,15=1/2;
 3/5=1,6=6,7=101,11=2,25=1,30=1,70=2105,71=1,72=9,74=-5,75=-5,124=41/1,2,3;
 4/5=5,16=3,69=1/1;
 5/5=2,38=5,53=9/2;
 7/30=1/1,2,3,16;
 1/7=10,18=20,19=15,26=6/3(-5);
 2/9=110,15=1/2;
 6/7=2,8=2,9=2,10=2,19=2,28=1/1;
 99/9=1/99;
 Leave Link    1 at Fri Dec 21 16:00:04 2018, MaxMem=  1342177280 cpu:               7.3 elap:               0.5
 (Enter /gpfs/apps/hpc/Apps/Restricted/Gaussian/Rev_A.03/g16/l101.exe)
 ----------------------------------------------------------------------
 cyclohexylimine monoBIP neutral, with both protons transferred optimiz
 ation
 ----------------------------------------------------------------------
 Symbolic Z-matrix:
 Charge =  0 Multiplicity = 1
 C                    -0.5094    2.72704   0.36019 
 C                    -1.91523   2.93021   0.24958 
 C                    -2.46536   4.19801   0.14259 
 C                    -1.58599   5.29905   0.15167 
 C                    -0.211     5.13034   0.25736 
 C                     0.36481   3.84097   0.35809 
 C                    -1.41611   0.76877   0.39483 
 H                    -3.53505   4.34286   0.0531 
 H                    -1.99562   6.2987    0.07364 
 H                     0.44305   5.99482   0.26 
 N                    -2.44446   1.66028   0.27508 
 C                    -3.02294  -1.13123   0.33771 
 C                    -1.661    -0.64556   0.44823 
 C                    -0.57215  -1.52548   0.60122 
 C                    -0.74888  -2.89575   0.66138 
 C                    -2.0749   -3.37525   0.54432 
 C                    -3.19187  -2.56815   0.38168 
 H                     0.42065  -1.09416   0.67549 
 H                    -2.22703  -4.44445   0.58412 
 C                     0.46042  -3.82359   0.83793 
 C                    -4.59545  -3.17428   0.23893 
 O                    -4.0204   -0.3203    0.20398 
 N                    -0.21397   1.39822   0.44893 
 C                     1.7746    3.67597   0.42945 
 H                     2.41328   4.55268   0.41777 
 N                     2.35177   2.50758   0.49995 
 C                     3.80637   2.27448   0.50263 
 C                     4.35933   2.32478  -0.93067 
 C                     4.54717   3.24976   1.4228 
 H                     3.92935   1.26098   0.89211 
 C                     5.86715   2.05123  -0.93826 
 H                     4.15701   3.32036  -1.34232 
 H                     3.82994   1.60007  -1.55505 
 C                     6.05212   2.95849   1.4117 
 H                     4.38668   4.27572   1.07452 
 H                     4.1399    3.1796    2.43478 
 C                     6.61815   3.01318  -0.01165 
 H                     6.24668   2.12536  -1.96113 
 H                     6.04522   1.02068  -0.60854 
 H                     6.564     3.67705   2.05809 
 H                     6.23314   1.96395   1.83673 
 H                     7.68541   2.77364  -0.00321 
 H                     6.52458   4.03579  -0.39764 
 H                    -3.39228   1.2356    0.21203 
 H                     1.71726   1.69644   0.48863 
 C                    -5.51456  -2.64968   1.3616 
 H                    -5.59391  -1.56511   1.31344 
 H                    -6.5141   -3.08605   1.26501 
 H                    -5.11596  -2.92738   2.3422 
 C                    -4.58184  -4.70856   0.32833 
 H                    -5.60273  -5.08419   0.21814 
 H                    -3.97245  -5.15742  -0.46097 
 H                    -4.1997   -5.05394   1.29304 
 C                    -5.18473  -2.78837  -1.13448 
 H                    -5.19879  -1.7055   -1.25212 
 H                    -4.58512  -3.2184   -1.9423 
 H                    -6.20657  -3.16991  -1.22952 
 C                     1.19076  -3.46964   2.14861 
 H                     2.06195  -4.11681   2.28936 
 H                     1.53562  -2.43266   2.13891 
 H                     0.52597  -3.59556   3.00734 
 C                     1.43054  -3.62967  -0.34509 
 H                     1.76856  -2.59236  -0.40958 
 H                     2.31164  -4.26873  -0.2304 
 H                     0.94256  -3.88652  -1.2895 
 C                     0.05894  -5.3048    0.89319 
 H                    -0.60116  -5.51391   1.73942 
 H                    -0.45243  -5.61529  -0.02175 
 H                     0.95367  -5.92294   1.00342 
 
 ITRead=  0  0  0  0  0  0  0  0  0  0  0  0  0  0  0  0  0  0  0  0
 ITRead=  0  0  0  0  0  0  0  0  0  0  0  0  0  0  0  0  0  0  0  0
 ITRead=  0  0  0  0  0  0  0  0  0  0  0  0  0  0  0  0  0  0  0  0
 ITRead=  0  0  0  0  0  0  0  0  0
 MicOpt= -1 -1 -1 -1 -1 -1 -1 -1 -1 -1 -1 -1 -1 -1 -1 -1 -1 -1 -1 -1
 MicOpt= -1 -1 -1 -1 -1 -1 -1 -1 -1 -1 -1 -1 -1 -1 -1 -1 -1 -1 -1 -1
 MicOpt= -1 -1 -1 -1 -1 -1 -1 -1 -1 -1 -1 -1 -1 -1 -1 -1 -1 -1 -1 -1
 MicOpt= -1 -1 -1 -1 -1 -1 -1 -1 -1
 NAtoms=     69 NQM=       69 NQMF=       0 NMMI=      0 NMMIF=      0
                NMic=       0 NMicF=      0.
                    Isotopes and Nuclear Properties:
 (Nuclear quadrupole moments (NQMom) in fm**2, nuclear magnetic moments (NMagM)
  in nuclear magnetons)

  Atom         1           2           3           4           5           6           7           8           9          10
 IAtWgt=          12          12          12          12          12          12          12           1           1           1
 AtmWgt=  12.0000000  12.0000000  12.0000000  12.0000000  12.0000000  12.0000000  12.0000000   1.0078250   1.0078250   1.0078250
 NucSpn=           0           0           0           0           0           0           0           1           1           1
 AtZEff=  -0.0000000  -0.0000000  -0.0000000  -0.0000000  -0.0000000  -0.0000000  -0.0000000  -0.0000000  -0.0000000  -0.0000000
 NQMom=    0.0000000   0.0000000   0.0000000   0.0000000   0.0000000   0.0000000   0.0000000   0.0000000   0.0000000   0.0000000
 NMagM=    0.0000000   0.0000000   0.0000000   0.0000000   0.0000000   0.0000000   0.0000000   2.7928460   2.7928460   2.7928460
 AtZNuc=   6.0000000   6.0000000   6.0000000   6.0000000   6.0000000   6.0000000   6.0000000   1.0000000   1.0000000   1.0000000

  Atom        11          12          13          14          15          16          17          18          19          20
 IAtWgt=          14          12          12          12          12          12          12           1           1          12
 AtmWgt=  14.0030740  12.0000000  12.0000000  12.0000000  12.0000000  12.0000000  12.0000000   1.0078250   1.0078250  12.0000000
 NucSpn=           2           0           0           0           0           0           0           1           1           0
 AtZEff=  -0.0000000  -0.0000000  -0.0000000  -0.0000000  -0.0000000  -0.0000000  -0.0000000  -0.0000000  -0.0000000  -0.0000000
 NQMom=    2.0440000   0.0000000   0.0000000   0.0000000   0.0000000   0.0000000   0.0000000   0.0000000   0.0000000   0.0000000
 NMagM=    0.4037610   0.0000000   0.0000000   0.0000000   0.0000000   0.0000000   0.0000000   2.7928460   2.7928460   0.0000000
 AtZNuc=   7.0000000   6.0000000   6.0000000   6.0000000   6.0000000   6.0000000   6.0000000   1.0000000   1.0000000   6.0000000

  Atom        21          22          23          24          25          26          27          28          29          30
 IAtWgt=          12          16          14          12           1          14          12          12          12           1
 AtmWgt=  12.0000000  15.9949146  14.0030740  12.0000000   1.0078250  14.0030740  12.0000000  12.0000000  12.0000000   1.0078250
 NucSpn=           0           0           2           0           1           2           0           0           0           1
 AtZEff=  -0.0000000  -0.0000000  -0.0000000  -0.0000000  -0.0000000  -0.0000000  -0.0000000  -0.0000000  -0.0000000  -0.0000000
 NQMom=    0.0000000   0.0000000   2.0440000   0.0000000   0.0000000   2.0440000   0.0000000   0.0000000   0.0000000   0.0000000
 NMagM=    0.0000000   0.0000000   0.4037610   0.0000000   2.7928460   0.4037610   0.0000000   0.0000000   0.0000000   2.7928460
 AtZNuc=   6.0000000   8.0000000   7.0000000   6.0000000   1.0000000   7.0000000   6.0000000   6.0000000   6.0000000   1.0000000

  Atom        31          32          33          34          35          36          37          38          39          40
 IAtWgt=          12           1           1          12           1           1          12           1           1           1
 AtmWgt=  12.0000000   1.0078250   1.0078250  12.0000000   1.0078250   1.0078250  12.0000000   1.0078250   1.0078250   1.0078250
 NucSpn=           0           1           1           0           1           1           0           1           1           1
 AtZEff=  -0.0000000  -0.0000000  -0.0000000  -0.0000000  -0.0000000  -0.0000000  -0.0000000  -0.0000000  -0.0000000  -0.0000000
 NQMom=    0.0000000   0.0000000   0.0000000   0.0000000   0.0000000   0.0000000   0.0000000   0.0000000   0.0000000   0.0000000
 NMagM=    0.0000000   2.7928460   2.7928460   0.0000000   2.7928460   2.7928460   0.0000000   2.7928460   2.7928460   2.7928460
 AtZNuc=   6.0000000   1.0000000   1.0000000   6.0000000   1.0000000   1.0000000   6.0000000   1.0000000   1.0000000   1.0000000

  Atom        41          42          43          44          45          46          47          48          49          50
 IAtWgt=           1           1           1           1           1          12           1           1           1          12
 AtmWgt=   1.0078250   1.0078250   1.0078250   1.0078250   1.0078250  12.0000000   1.0078250   1.0078250   1.0078250  12.0000000
 NucSpn=           1           1           1           1           1           0           1           1           1           0
 AtZEff=  -0.0000000  -0.0000000  -0.0000000  -0.0000000  -0.0000000  -0.0000000  -0.0000000  -0.0000000  -0.0000000  -0.0000000
 NQMom=    0.0000000   0.0000000   0.0000000   0.0000000   0.0000000   0.0000000   0.0000000   0.0000000   0.0000000   0.0000000
 NMagM=    2.7928460   2.7928460   2.7928460   2.7928460   2.7928460   0.0000000   2.7928460   2.7928460   2.7928460   0.0000000
 AtZNuc=   1.0000000   1.0000000   1.0000000   1.0000000   1.0000000   6.0000000   1.0000000   1.0000000   1.0000000   6.0000000

  Atom        51          52          53          54          55          56          57          58          59          60
 IAtWgt=           1           1           1          12           1           1           1          12           1           1
 AtmWgt=   1.0078250   1.0078250   1.0078250  12.0000000   1.0078250   1.0078250   1.0078250  12.0000000   1.0078250   1.0078250
 NucSpn=           1           1           1           0           1           1           1           0           1           1
 AtZEff=  -0.0000000  -0.0000000  -0.0000000  -0.0000000  -0.0000000  -0.0000000  -0.0000000  -0.0000000  -0.0000000  -0.0000000
 NQMom=    0.0000000   0.0000000   0.0000000   0.0000000   0.0000000   0.0000000   0.0000000   0.0000000   0.0000000   0.0000000
 NMagM=    2.7928460   2.7928460   2.7928460   0.0000000   2.7928460   2.7928460   2.7928460   0.0000000   2.7928460   2.7928460
 AtZNuc=   1.0000000   1.0000000   1.0000000   6.0000000   1.0000000   1.0000000   1.0000000   6.0000000   1.0000000   1.0000000

  Atom        61          62          63          64          65          66          67          68          69
 IAtWgt=           1          12           1           1           1          12           1           1           1
 AtmWgt=   1.0078250  12.0000000   1.0078250   1.0078250   1.0078250  12.0000000   1.0078250   1.0078250   1.0078250
 NucSpn=           1           0           1           1           1           0           1           1           1
 AtZEff=  -0.0000000  -0.0000000  -0.0000000  -0.0000000  -0.0000000  -0.0000000  -0.0000000  -0.0000000  -0.0000000
 NQMom=    0.0000000   0.0000000   0.0000000   0.0000000   0.0000000   0.0000000   0.0000000   0.0000000   0.0000000
 NMagM=    2.7928460   0.0000000   2.7928460   2.7928460   2.7928460   0.0000000   2.7928460   2.7928460   2.7928460
 AtZNuc=   1.0000000   6.0000000   1.0000000   1.0000000   1.0000000   6.0000000   1.0000000   1.0000000   1.0000000
 Leave Link  101 at Fri Dec 21 16:00:05 2018, MaxMem=  1342177280 cpu:               3.8 elap:               0.3
 (Enter /gpfs/apps/hpc/Apps/Restricted/Gaussian/Rev_A.03/g16/l103.exe)

 GradGradGradGradGradGradGradGradGradGradGradGradGradGradGradGradGradGrad
 Berny optimization.
 Initialization pass.
                           ----------------------------
                           !    Initial Parameters    !
                           ! (Angstroms and Degrees)  !
 --------------------------                            --------------------------
 ! Name  Definition              Value          Derivative Info.                !
 --------------------------------------------------------------------------------
 ! R1    R(1,2)                  1.4247         estimate D2E/DX2                !
 ! R2    R(1,6)                  1.416          estimate D2E/DX2                !
 ! R3    R(1,23)                 1.3641         estimate D2E/DX2                !
 ! R4    R(2,3)                  1.3862         estimate D2E/DX2                !
 ! R5    R(2,11)                 1.376          estimate D2E/DX2                !
 ! R6    R(3,4)                  1.4091         estimate D2E/DX2                !
 ! R7    R(3,8)                  1.0832         estimate D2E/DX2                !
 ! R8    R(4,5)                  1.3893         estimate D2E/DX2                !
 ! R9    R(4,9)                  1.0831         estimate D2E/DX2                !
 ! R10   R(5,6)                  1.4157         estimate D2E/DX2                !
 ! R11   R(5,10)                 1.084          estimate D2E/DX2                !
 ! R12   R(6,24)                 1.4212         estimate D2E/DX2                !
 ! R13   R(7,11)                 1.3662         estimate D2E/DX2                !
 ! R14   R(7,13)                 1.4364         estimate D2E/DX2                !
 ! R15   R(7,23)                 1.358          estimate D2E/DX2                !
 ! R16   R(11,44)                1.0405         estimate D2E/DX2                !
 ! R17   R(12,13)                1.4502         estimate D2E/DX2                !
 ! R18   R(12,17)                1.4475         estimate D2E/DX2                !
 ! R19   R(12,22)                1.2924         estimate D2E/DX2                !
 ! R20   R(13,14)                1.4083         estimate D2E/DX2                !
 ! R21   R(14,15)                1.3829         estimate D2E/DX2                !
 ! R22   R(14,18)                1.085          estimate D2E/DX2                !
 ! R23   R(15,16)                1.4149         estimate D2E/DX2                !
 ! R24   R(15,20)                1.5344         estimate D2E/DX2                !
 ! R25   R(16,17)                1.3876         estimate D2E/DX2                !
 ! R26   R(16,19)                1.0807         estimate D2E/DX2                !
 ! R27   R(17,21)                1.5355         estimate D2E/DX2                !
 ! R28   R(20,58)                1.5416         estimate D2E/DX2                !
 ! R29   R(20,62)                1.5422         estimate D2E/DX2                !
 ! R30   R(20,66)                1.5357         estimate D2E/DX2                !
 ! R31   R(21,46)                1.5428         estimate D2E/DX2                !
 ! R32   R(21,50)                1.5369         estimate D2E/DX2                !
 ! R33   R(21,54)                1.5435         estimate D2E/DX2                !
 ! R34   R(24,25)                1.0847         estimate D2E/DX2                !
 ! R35   R(24,26)                1.3051         estimate D2E/DX2                !
 ! R36   R(26,27)                1.4732         estimate D2E/DX2                !
 ! R37   R(26,45)                1.0299         estimate D2E/DX2                !
 ! R38   R(27,28)                1.5371         estimate D2E/DX2                !
 ! R39   R(27,29)                1.5319         estimate D2E/DX2                !
 ! R40   R(27,30)                1.0927         estimate D2E/DX2                !
 ! R41   R(28,31)                1.5324         estimate D2E/DX2                !
 ! R42   R(28,32)                1.0962         estimate D2E/DX2                !
 ! R43   R(28,33)                1.0933         estimate D2E/DX2                !
 ! R44   R(29,34)                1.5329         estimate D2E/DX2                !
 ! R45   R(29,35)                1.0953         estimate D2E/DX2                !
 ! R46   R(29,36)                1.0931         estimate D2E/DX2                !
 ! R47   R(31,37)                1.5323         estimate D2E/DX2                !
 ! R48   R(31,38)                1.0935         estimate D2E/DX2                !
 ! R49   R(31,39)                1.0966         estimate D2E/DX2                !
 ! R50   R(34,37)                1.5327         estimate D2E/DX2                !
 ! R51   R(34,40)                1.0937         estimate D2E/DX2                !
 ! R52   R(34,41)                1.0966         estimate D2E/DX2                !
 ! R53   R(37,42)                1.0938         estimate D2E/DX2                !
 ! R54   R(37,43)                1.097          estimate D2E/DX2                !
 ! R55   R(46,47)                1.0885         estimate D2E/DX2                !
 ! R56   R(46,48)                1.0949         estimate D2E/DX2                !
 ! R57   R(46,49)                1.0943         estimate D2E/DX2                !
 ! R58   R(50,51)                1.0934         estimate D2E/DX2                !
 ! R59   R(50,52)                1.0935         estimate D2E/DX2                !
 ! R60   R(50,53)                1.0936         estimate D2E/DX2                !
 ! R61   R(54,55)                1.0893         estimate D2E/DX2                !
 ! R62   R(54,56)                1.0941         estimate D2E/DX2                !
 ! R63   R(54,57)                1.0949         estimate D2E/DX2                !
 ! R64   R(58,59)                1.0944         estimate D2E/DX2                !
 ! R65   R(58,60)                1.0929         estimate D2E/DX2                !
 ! R66   R(58,61)                1.0933         estimate D2E/DX2                !
 ! R67   R(62,63)                1.0929         estimate D2E/DX2                !
 ! R68   R(62,64)                1.0945         estimate D2E/DX2                !
 ! R69   R(62,65)                1.0936         estimate D2E/DX2                !
 ! R70   R(66,67)                1.0934         estimate D2E/DX2                !
 ! R71   R(66,68)                1.0932         estimate D2E/DX2                !
 ! R72   R(66,69)                1.0931         estimate D2E/DX2                !
 ! A1    A(2,1,6)              119.7941         estimate D2E/DX2                !
 ! A2    A(2,1,23)             110.9562         estimate D2E/DX2                !
 ! A3    A(6,1,23)             129.2485         estimate D2E/DX2                !
 ! A4    A(1,2,3)              121.8726         estimate D2E/DX2                !
 ! A5    A(1,2,11)             104.2678         estimate D2E/DX2                !
 ! A6    A(3,2,11)             133.8591         estimate D2E/DX2                !
 ! A7    A(2,3,4)              117.8057         estimate D2E/DX2                !
 ! A8    A(2,3,8)              121.3745         estimate D2E/DX2                !
 ! A9    A(4,3,8)              120.8197         estimate D2E/DX2                !
 ! A10   A(3,4,5)              121.5484         estimate D2E/DX2                !
 ! A11   A(3,4,9)              118.9899         estimate D2E/DX2                !
 ! A12   A(5,4,9)              119.4617         estimate D2E/DX2                !
 ! A13   A(4,5,6)              121.2347         estimate D2E/DX2                !
 ! A14   A(4,5,10)             120.0311         estimate D2E/DX2                !
 ! A15   A(6,5,10)             118.7337         estimate D2E/DX2                !
 ! A16   A(1,6,5)              117.7411         estimate D2E/DX2                !
 ! A17   A(1,6,24)             121.4001         estimate D2E/DX2                !
 ! A18   A(5,6,24)             120.8488         estimate D2E/DX2                !
 ! A19   A(11,7,13)            121.1614         estimate D2E/DX2                !
 ! A20   A(11,7,23)            111.5507         estimate D2E/DX2                !
 ! A21   A(13,7,23)            127.2878         estimate D2E/DX2                !
 ! A22   A(2,11,7)             108.3216         estimate D2E/DX2                !
 ! A23   A(2,11,44)            136.5428         estimate D2E/DX2                !
 ! A24   A(7,11,44)            115.126          estimate D2E/DX2                !
 ! A25   A(13,12,17)           116.0882         estimate D2E/DX2                !
 ! A26   A(13,12,22)           121.5048         estimate D2E/DX2                !
 ! A27   A(17,12,22)           122.4067         estimate D2E/DX2                !
 ! A28   A(7,13,12)            119.1467         estimate D2E/DX2                !
 ! A29   A(7,13,14)            119.1735         estimate D2E/DX2                !
 ! A30   A(12,13,14)           121.6793         estimate D2E/DX2                !
 ! A31   A(13,14,15)           121.6692         estimate D2E/DX2                !
 ! A32   A(13,14,18)           117.8089         estimate D2E/DX2                !
 ! A33   A(15,14,18)           120.5214         estimate D2E/DX2                !
 ! A34   A(14,15,16)           116.8698         estimate D2E/DX2                !
 ! A35   A(14,15,20)           120.2273         estimate D2E/DX2                !
 ! A36   A(16,15,20)           122.9016         estimate D2E/DX2                !
 ! A37   A(15,16,17)           124.5391         estimate D2E/DX2                !
 ! A38   A(15,16,19)           117.6565         estimate D2E/DX2                !
 ! A39   A(17,16,19)           117.8044         estimate D2E/DX2                !
 ! A40   A(12,17,16)           119.1444         estimate D2E/DX2                !
 ! A41   A(12,17,21)           119.717          estimate D2E/DX2                !
 ! A42   A(16,17,21)           121.1374         estimate D2E/DX2                !
 ! A43   A(15,20,58)           109.4121         estimate D2E/DX2                !
 ! A44   A(15,20,62)           109.3583         estimate D2E/DX2                !
 ! A45   A(15,20,66)           112.417          estimate D2E/DX2                !
 ! A46   A(58,20,62)           108.9846         estimate D2E/DX2                !
 ! A47   A(58,20,66)           108.3438         estimate D2E/DX2                !
 ! A48   A(62,20,66)           108.2614         estimate D2E/DX2                !
 ! A49   A(17,21,46)           110.04           estimate D2E/DX2                !
 ! A50   A(17,21,50)           112.368          estimate D2E/DX2                !
 ! A51   A(17,21,54)           109.4513         estimate D2E/DX2                !
 ! A52   A(46,21,50)           107.6006         estimate D2E/DX2                !
 ! A53   A(46,21,54)           109.5742         estimate D2E/DX2                !
 ! A54   A(50,21,54)           107.7411         estimate D2E/DX2                !
 ! A55   A(1,23,7)             104.9036         estimate D2E/DX2                !
 ! A56   A(6,24,25)            119.3198         estimate D2E/DX2                !
 ! A57   A(6,24,26)            123.0484         estimate D2E/DX2                !
 ! A58   A(25,24,26)           117.63           estimate D2E/DX2                !
 ! A59   A(24,26,27)           125.3403         estimate D2E/DX2                !
 ! A60   A(24,26,45)           115.5971         estimate D2E/DX2                !
 ! A61   A(27,26,45)           118.9297         estimate D2E/DX2                !
 ! A62   A(26,27,28)           110.3859         estimate D2E/DX2                !
 ! A63   A(26,27,29)           112.2006         estimate D2E/DX2                !
 ! A64   A(26,27,30)           104.9832         estimate D2E/DX2                !
 ! A65   A(28,27,29)           111.4274         estimate D2E/DX2                !
 ! A66   A(28,27,30)           108.7978         estimate D2E/DX2                !
 ! A67   A(29,27,30)           108.7823         estimate D2E/DX2                !
 ! A68   A(27,28,31)           110.6549         estimate D2E/DX2                !
 ! A69   A(27,28,32)           108.2703         estimate D2E/DX2                !
 ! A70   A(27,28,33)           109.6726         estimate D2E/DX2                !
 ! A71   A(31,28,32)           109.991          estimate D2E/DX2                !
 ! A72   A(31,28,33)           110.8104         estimate D2E/DX2                !
 ! A73   A(32,28,33)           107.3498         estimate D2E/DX2                !
 ! A74   A(27,29,34)           110.4532         estimate D2E/DX2                !
 ! A75   A(27,29,35)           109.5414         estimate D2E/DX2                !
 ! A76   A(27,29,36)           109.5764         estimate D2E/DX2                !
 ! A77   A(34,29,35)           108.6349         estimate D2E/DX2                !
 ! A78   A(34,29,36)           111.1182         estimate D2E/DX2                !
 ! A79   A(35,29,36)           107.4518         estimate D2E/DX2                !
 ! A80   A(28,31,37)           111.5417         estimate D2E/DX2                !
 ! A81   A(28,31,38)           109.5131         estimate D2E/DX2                !
 ! A82   A(28,31,39)           109.0293         estimate D2E/DX2                !
 ! A83   A(37,31,38)           110.6694         estimate D2E/DX2                !
 ! A84   A(37,31,39)           109.1818         estimate D2E/DX2                !
 ! A85   A(38,31,39)           106.7748         estimate D2E/DX2                !
 ! A86   A(29,34,37)           111.2541         estimate D2E/DX2                !
 ! A87   A(29,34,40)           109.2911         estimate D2E/DX2                !
 ! A88   A(29,34,41)           109.3652         estimate D2E/DX2                !
 ! A89   A(37,34,40)           110.6433         estimate D2E/DX2                !
 ! A90   A(37,34,41)           109.3492         estimate D2E/DX2                !
 ! A91   A(40,34,41)           106.8293         estimate D2E/DX2                !
 ! A92   A(31,37,34)           110.9869         estimate D2E/DX2                !
 ! A93   A(31,37,42)           110.2054         estimate D2E/DX2                !
 ! A94   A(31,37,43)           109.3062         estimate D2E/DX2                !
 ! A95   A(34,37,42)           110.2027         estimate D2E/DX2                !
 ! A96   A(34,37,43)           109.1778         estimate D2E/DX2                !
 ! A97   A(42,37,43)           106.8627         estimate D2E/DX2                !
 ! A98   A(21,46,47)           110.488          estimate D2E/DX2                !
 ! A99   A(21,46,48)           110.129          estimate D2E/DX2                !
 ! A100  A(21,46,49)           110.4116         estimate D2E/DX2                !
 ! A101  A(47,46,48)           109.0654         estimate D2E/DX2                !
 ! A102  A(47,46,49)           108.6044         estimate D2E/DX2                !
 ! A103  A(48,46,49)           108.0848         estimate D2E/DX2                !
 ! A104  A(21,50,51)           109.1977         estimate D2E/DX2                !
 ! A105  A(21,50,52)           111.8825         estimate D2E/DX2                !
 ! A106  A(21,50,53)           111.6956         estimate D2E/DX2                !
 ! A107  A(51,50,52)           107.8524         estimate D2E/DX2                !
 ! A108  A(51,50,53)           107.8586         estimate D2E/DX2                !
 ! A109  A(52,50,53)           108.2009         estimate D2E/DX2                !
 ! A110  A(21,54,55)           110.4593         estimate D2E/DX2                !
 ! A111  A(21,54,56)           110.4555         estimate D2E/DX2                !
 ! A112  A(21,54,57)           110.2688         estimate D2E/DX2                !
 ! A113  A(55,54,56)           108.5456         estimate D2E/DX2                !
 ! A114  A(55,54,57)           108.9649         estimate D2E/DX2                !
 ! A115  A(56,54,57)           108.0851         estimate D2E/DX2                !
 ! A116  A(20,58,59)           110.5308         estimate D2E/DX2                !
 ! A117  A(20,58,60)           111.0883         estimate D2E/DX2                !
 ! A118  A(20,58,61)           110.6888         estimate D2E/DX2                !
 ! A119  A(59,58,60)           108.1233         estimate D2E/DX2                !
 ! A120  A(59,58,61)           108.3576         estimate D2E/DX2                !
 ! A121  A(60,58,61)           107.9473         estimate D2E/DX2                !
 ! A122  A(20,62,63)           111.0499         estimate D2E/DX2                !
 ! A123  A(20,62,64)           110.6472         estimate D2E/DX2                !
 ! A124  A(20,62,65)           110.6232         estimate D2E/DX2                !
 ! A125  A(63,62,64)           108.1432         estimate D2E/DX2                !
 ! A126  A(63,62,65)           108.057          estimate D2E/DX2                !
 ! A127  A(64,62,65)           108.2144         estimate D2E/DX2                !
 ! A128  A(20,66,67)           111.7241         estimate D2E/DX2                !
 ! A129  A(20,66,68)           111.4775         estimate D2E/DX2                !
 ! A130  A(20,66,69)           109.5782         estimate D2E/DX2                !
 ! A131  A(67,66,68)           108.1206         estimate D2E/DX2                !
 ! A132  A(67,66,69)           107.9369         estimate D2E/DX2                !
 ! A133  A(68,66,69)           107.8607         estimate D2E/DX2                !
 ! D1    D(6,1,2,3)             -0.2039         estimate D2E/DX2                !
 ! D2    D(6,1,2,11)           179.5808         estimate D2E/DX2                !
 ! D3    D(23,1,2,3)          -179.8455         estimate D2E/DX2                !
 ! D4    D(23,1,2,11)           -0.0608         estimate D2E/DX2                !
 ! D5    D(2,1,6,5)              0.6146         estimate D2E/DX2                !
 ! D6    D(2,1,6,24)          -178.2425         estimate D2E/DX2                !
 ! D7    D(23,1,6,5)          -179.8176         estimate D2E/DX2                !
 ! D8    D(23,1,6,24)            1.3253         estimate D2E/DX2                !
 ! D9    D(2,1,23,7)             0.0178         estimate D2E/DX2                !
 ! D10   D(6,1,23,7)          -179.5806         estimate D2E/DX2                !
 ! D11   D(1,2,3,4)             -0.2622         estimate D2E/DX2                !
 ! D12   D(1,2,3,8)            179.6387         estimate D2E/DX2                !
 ! D13   D(11,2,3,4)          -179.9728         estimate D2E/DX2                !
 ! D14   D(11,2,3,8)            -0.0719         estimate D2E/DX2                !
 ! D15   D(1,2,11,7)             0.079          estimate D2E/DX2                !
 ! D16   D(1,2,11,44)         -178.6852         estimate D2E/DX2                !
 ! D17   D(3,2,11,7)           179.8254         estimate D2E/DX2                !
 ! D18   D(3,2,11,44)            1.0612         estimate D2E/DX2                !
 ! D19   D(2,3,4,5)              0.3077         estimate D2E/DX2                !
 ! D20   D(2,3,4,9)           -179.7285         estimate D2E/DX2                !
 ! D21   D(8,3,4,5)           -179.5938         estimate D2E/DX2                !
 ! D22   D(8,3,4,9)              0.37           estimate D2E/DX2                !
 ! D23   D(3,4,5,6)              0.1181         estimate D2E/DX2                !
 ! D24   D(3,4,5,10)           179.8841         estimate D2E/DX2                !
 ! D25   D(9,4,5,6)           -179.8455         estimate D2E/DX2                !
 ! D26   D(9,4,5,10)            -0.0795         estimate D2E/DX2                !
 ! D27   D(4,5,6,1)             -0.5783         estimate D2E/DX2                !
 ! D28   D(4,5,6,24)           178.2855         estimate D2E/DX2                !
 ! D29   D(10,5,6,1)           179.6528         estimate D2E/DX2                !
 ! D30   D(10,5,6,24)           -1.4834         estimate D2E/DX2                !
 ! D31   D(1,6,24,25)          179.5315         estimate D2E/DX2                !
 ! D32   D(1,6,24,26)            0.0339         estimate D2E/DX2                !
 ! D33   D(5,6,24,25)            0.7097         estimate D2E/DX2                !
 ! D34   D(5,6,24,26)         -178.7879         estimate D2E/DX2                !
 ! D35   D(13,7,11,2)         -179.9965         estimate D2E/DX2                !
 ! D36   D(13,7,11,44)          -0.9353         estimate D2E/DX2                !
 ! D37   D(23,7,11,2)           -0.0743         estimate D2E/DX2                !
 ! D38   D(23,7,11,44)         178.9869         estimate D2E/DX2                !
 ! D39   D(11,7,13,12)           1.6147         estimate D2E/DX2                !
 ! D40   D(11,7,13,14)        -178.6345         estimate D2E/DX2                !
 ! D41   D(23,7,13,12)        -178.2944         estimate D2E/DX2                !
 ! D42   D(23,7,13,14)           1.4564         estimate D2E/DX2                !
 ! D43   D(11,7,23,1)            0.0341         estimate D2E/DX2                !
 ! D44   D(13,7,23,1)          179.9504         estimate D2E/DX2                !
 ! D45   D(17,12,13,7)         179.1974         estimate D2E/DX2                !
 ! D46   D(17,12,13,14)         -0.547          estimate D2E/DX2                !
 ! D47   D(22,12,13,7)          -0.6001         estimate D2E/DX2                !
 ! D48   D(22,12,13,14)        179.6556         estimate D2E/DX2                !
 ! D49   D(13,12,17,16)          1.011          estimate D2E/DX2                !
 ! D50   D(13,12,17,21)       -178.5778         estimate D2E/DX2                !
 ! D51   D(22,12,17,16)       -179.1936         estimate D2E/DX2                !
 ! D52   D(22,12,17,21)          1.2176         estimate D2E/DX2                !
 ! D53   D(7,13,14,15)         179.8748         estimate D2E/DX2                !
 ! D54   D(7,13,14,18)           0.1164         estimate D2E/DX2                !
 ! D55   D(12,13,14,15)         -0.3809         estimate D2E/DX2                !
 ! D56   D(12,13,14,18)        179.8607         estimate D2E/DX2                !
 ! D57   D(13,14,15,16)          0.8062         estimate D2E/DX2                !
 ! D58   D(13,14,15,20)       -179.5957         estimate D2E/DX2                !
 ! D59   D(18,14,15,16)       -179.4419         estimate D2E/DX2                !
 ! D60   D(18,14,15,20)          0.1562         estimate D2E/DX2                !
 ! D61   D(14,15,16,17)         -0.3082         estimate D2E/DX2                !
 ! D62   D(14,15,16,19)        179.6678         estimate D2E/DX2                !
 ! D63   D(20,15,16,17)       -179.8945         estimate D2E/DX2                !
 ! D64   D(20,15,16,19)          0.0815         estimate D2E/DX2                !
 ! D65   D(14,15,20,58)         59.1098         estimate D2E/DX2                !
 ! D66   D(14,15,20,62)        -60.1913         estimate D2E/DX2                !
 ! D67   D(14,15,20,66)        179.5296         estimate D2E/DX2                !
 ! D68   D(16,15,20,58)       -121.3173         estimate D2E/DX2                !
 ! D69   D(16,15,20,62)        119.3816         estimate D2E/DX2                !
 ! D70   D(16,15,20,66)         -0.8975         estimate D2E/DX2                !
 ! D71   D(15,16,17,12)         -0.6242         estimate D2E/DX2                !
 ! D72   D(15,16,17,21)        178.9586         estimate D2E/DX2                !
 ! D73   D(19,16,17,12)        179.3999         estimate D2E/DX2                !
 ! D74   D(19,16,17,21)         -1.0173         estimate D2E/DX2                !
 ! D75   D(12,17,21,46)        -59.3633         estimate D2E/DX2                !
 ! D76   D(12,17,21,50)       -179.2418         estimate D2E/DX2                !
 ! D77   D(12,17,21,54)         61.1025         estimate D2E/DX2                !
 ! D78   D(16,17,21,46)        121.0563         estimate D2E/DX2                !
 ! D79   D(16,17,21,50)          1.1778         estimate D2E/DX2                !
 ! D80   D(16,17,21,54)       -118.4779         estimate D2E/DX2                !
 ! D81   D(15,20,58,59)       -179.6002         estimate D2E/DX2                !
 ! D82   D(15,20,58,60)        -59.5723         estimate D2E/DX2                !
 ! D83   D(15,20,58,61)         60.339          estimate D2E/DX2                !
 ! D84   D(62,20,58,59)        -60.0687         estimate D2E/DX2                !
 ! D85   D(62,20,58,60)         59.9593         estimate D2E/DX2                !
 ! D86   D(62,20,58,61)        179.8706         estimate D2E/DX2                !
 ! D87   D(66,20,58,59)         57.5241         estimate D2E/DX2                !
 ! D88   D(66,20,58,60)        177.5521         estimate D2E/DX2                !
 ! D89   D(66,20,58,61)        -62.5366         estimate D2E/DX2                !
 ! D90   D(15,20,62,63)         58.808          estimate D2E/DX2                !
 ! D91   D(15,20,62,64)        178.9127         estimate D2E/DX2                !
 ! D92   D(15,20,62,65)        -61.1726         estimate D2E/DX2                !
 ! D93   D(58,20,62,63)        -60.757          estimate D2E/DX2                !
 ! D94   D(58,20,62,64)         59.3478         estimate D2E/DX2                !
 ! D95   D(58,20,62,65)        179.2625         estimate D2E/DX2                !
 ! D96   D(66,20,62,63)       -178.4019         estimate D2E/DX2                !
 ! D97   D(66,20,62,64)        -58.2971         estimate D2E/DX2                !
 ! D98   D(66,20,62,65)         61.6176         estimate D2E/DX2                !
 ! D99   D(15,20,66,67)        -61.3114         estimate D2E/DX2                !
 ! D100  D(15,20,66,68)         59.7894         estimate D2E/DX2                !
 ! D101  D(15,20,66,69)        179.1135         estimate D2E/DX2                !
 ! D102  D(58,20,66,67)         59.723          estimate D2E/DX2                !
 ! D103  D(58,20,66,68)       -179.1762         estimate D2E/DX2                !
 ! D104  D(58,20,66,69)        -59.8521         estimate D2E/DX2                !
 ! D105  D(62,20,66,67)        177.7775         estimate D2E/DX2                !
 ! D106  D(62,20,66,68)        -61.1216         estimate D2E/DX2                !
 ! D107  D(62,20,66,69)         58.2025         estimate D2E/DX2                !
 ! D108  D(17,21,46,47)         59.8129         estimate D2E/DX2                !
 ! D109  D(17,21,46,48)       -179.6339         estimate D2E/DX2                !
 ! D110  D(17,21,46,49)        -60.3484         estimate D2E/DX2                !
 ! D111  D(50,21,46,47)       -177.4566         estimate D2E/DX2                !
 ! D112  D(50,21,46,48)        -56.9034         estimate D2E/DX2                !
 ! D113  D(50,21,46,49)         62.3821         estimate D2E/DX2                !
 ! D114  D(54,21,46,47)        -60.5788         estimate D2E/DX2                !
 ! D115  D(54,21,46,48)         59.9744         estimate D2E/DX2                !
 ! D116  D(54,21,46,49)        179.2599         estimate D2E/DX2                !
 ! D117  D(17,21,50,51)       -179.8553         estimate D2E/DX2                !
 ! D118  D(17,21,50,52)        -60.5363         estimate D2E/DX2                !
 ! D119  D(17,21,50,53)         60.9344         estimate D2E/DX2                !
 ! D120  D(46,21,50,51)         58.8592         estimate D2E/DX2                !
 ! D121  D(46,21,50,52)        178.1783         estimate D2E/DX2                !
 ! D122  D(46,21,50,53)        -60.3511         estimate D2E/DX2                !
 ! D123  D(54,21,50,51)        -59.209          estimate D2E/DX2                !
 ! D124  D(54,21,50,52)         60.11           estimate D2E/DX2                !
 ! D125  D(54,21,50,53)       -178.4193         estimate D2E/DX2                !
 ! D126  D(17,21,54,55)        -56.55           estimate D2E/DX2                !
 ! D127  D(17,21,54,56)         63.5477         estimate D2E/DX2                !
 ! D128  D(17,21,54,57)       -177.0501         estimate D2E/DX2                !
 ! D129  D(46,21,54,55)         64.1994         estimate D2E/DX2                !
 ! D130  D(46,21,54,56)       -175.7029         estimate D2E/DX2                !
 ! D131  D(46,21,54,57)        -56.3006         estimate D2E/DX2                !
 ! D132  D(50,21,54,55)       -179.0112         estimate D2E/DX2                !
 ! D133  D(50,21,54,56)        -58.9135         estimate D2E/DX2                !
 ! D134  D(50,21,54,57)         60.4887         estimate D2E/DX2                !
 ! D135  D(6,24,26,27)         176.5091         estimate D2E/DX2                !
 ! D136  D(6,24,26,45)           0.7648         estimate D2E/DX2                !
 ! D137  D(25,24,26,27)         -2.9964         estimate D2E/DX2                !
 ! D138  D(25,24,26,45)       -178.7407         estimate D2E/DX2                !
 ! D139  D(24,26,27,28)        -80.8142         estimate D2E/DX2                !
 ! D140  D(24,26,27,29)         44.1171         estimate D2E/DX2                !
 ! D141  D(24,26,27,30)        162.1005         estimate D2E/DX2                !
 ! D142  D(45,26,27,28)         94.8003         estimate D2E/DX2                !
 ! D143  D(45,26,27,29)       -140.2683         estimate D2E/DX2                !
 ! D144  D(45,26,27,30)        -22.285          estimate D2E/DX2                !
 ! D145  D(26,27,28,31)       -178.7064         estimate D2E/DX2                !
 ! D146  D(26,27,28,32)         60.6826         estimate D2E/DX2                !
 ! D147  D(26,27,28,33)        -56.1595         estimate D2E/DX2                !
 ! D148  D(29,27,28,31)         55.9228         estimate D2E/DX2                !
 ! D149  D(29,27,28,32)        -64.6883         estimate D2E/DX2                !
 ! D150  D(29,27,28,33)        178.4696         estimate D2E/DX2                !
 ! D151  D(30,27,28,31)        -64.0079         estimate D2E/DX2                !
 ! D152  D(30,27,28,32)        175.3811         estimate D2E/DX2                !
 ! D153  D(30,27,28,33)         58.539          estimate D2E/DX2                !
 ! D154  D(26,27,29,34)        179.1428         estimate D2E/DX2                !
 ! D155  D(26,27,29,35)        -61.2365         estimate D2E/DX2                !
 ! D156  D(26,27,29,36)         56.4077         estimate D2E/DX2                !
 ! D157  D(28,27,29,34)        -56.5016         estimate D2E/DX2                !
 ! D158  D(28,27,29,35)         63.1191         estimate D2E/DX2                !
 ! D159  D(28,27,29,36)       -179.2368         estimate D2E/DX2                !
 ! D160  D(30,27,29,34)         63.4382         estimate D2E/DX2                !
 ! D161  D(30,27,29,35)       -176.9411         estimate D2E/DX2                !
 ! D162  D(30,27,29,36)        -59.2969         estimate D2E/DX2                !
 ! D163  D(27,28,31,37)        -55.215          estimate D2E/DX2                !
 ! D164  D(27,28,31,38)       -178.0686         estimate D2E/DX2                !
 ! D165  D(27,28,31,39)         65.4362         estimate D2E/DX2                !
 ! D166  D(32,28,31,37)         64.3663         estimate D2E/DX2                !
 ! D167  D(32,28,31,38)        -58.4874         estimate D2E/DX2                !
 ! D168  D(32,28,31,39)       -174.9825         estimate D2E/DX2                !
 ! D169  D(33,28,31,37)       -177.0959         estimate D2E/DX2                !
 ! D170  D(33,28,31,38)         60.0504         estimate D2E/DX2                !
 ! D171  D(33,28,31,39)        -56.4447         estimate D2E/DX2                !
 ! D172  D(27,29,34,37)         56.4045         estimate D2E/DX2                !
 ! D173  D(27,29,34,40)        178.8791         estimate D2E/DX2                !
 ! D174  D(27,29,34,41)        -64.495          estimate D2E/DX2                !
 ! D175  D(35,29,34,37)        -63.7618         estimate D2E/DX2                !
 ! D176  D(35,29,34,40)         58.7128         estimate D2E/DX2                !
 ! D177  D(35,29,34,41)        175.3387         estimate D2E/DX2                !
 ! D178  D(36,29,34,37)        178.2346         estimate D2E/DX2                !
 ! D179  D(36,29,34,40)        -59.2907         estimate D2E/DX2                !
 ! D180  D(36,29,34,41)         57.3351         estimate D2E/DX2                !
 ! D181  D(28,31,37,34)         55.4038         estimate D2E/DX2                !
 ! D182  D(28,31,37,42)        177.7689         estimate D2E/DX2                !
 ! D183  D(28,31,37,43)        -65.0729         estimate D2E/DX2                !
 ! D184  D(38,31,37,34)        177.5941         estimate D2E/DX2                !
 ! D185  D(38,31,37,42)        -60.0407         estimate D2E/DX2                !
 ! D186  D(38,31,37,43)         57.1174         estimate D2E/DX2                !
 ! D187  D(39,31,37,34)        -65.1582         estimate D2E/DX2                !
 ! D188  D(39,31,37,42)         57.207          estimate D2E/DX2                !
 ! D189  D(39,31,37,43)        174.3652         estimate D2E/DX2                !
 ! D190  D(29,34,37,31)        -55.9401         estimate D2E/DX2                !
 ! D191  D(29,34,37,42)       -178.3068         estimate D2E/DX2                !
 ! D192  D(29,34,37,43)         64.6126         estimate D2E/DX2                !
 ! D193  D(40,34,37,31)       -177.631          estimate D2E/DX2                !
 ! D194  D(40,34,37,42)         60.0023         estimate D2E/DX2                !
 ! D195  D(40,34,37,43)        -57.0783         estimate D2E/DX2                !
 ! D196  D(41,34,37,31)         64.9688         estimate D2E/DX2                !
 ! D197  D(41,34,37,42)        -57.398          estimate D2E/DX2                !
 ! D198  D(41,34,37,43)       -174.4785         estimate D2E/DX2                !
 --------------------------------------------------------------------------------
 Trust Radius=3.00D-01 FncErr=5.00D-06 GrdErr=5.00D-06 EigMax=2.50D+02 EigMin=1.00D-04
 Number of steps in this run=    413 maximum allowed number of steps=    414.
 GradGradGradGradGradGradGradGradGradGradGradGradGradGradGradGradGradGrad

 Leave Link  103 at Fri Dec 21 16:00:05 2018, MaxMem=  1342177280 cpu:               0.3 elap:               0.0
 (Enter /gpfs/apps/hpc/Apps/Restricted/Gaussian/Rev_A.03/g16/l202.exe)
 Symmetry turned off by external request.
 Stoichiometry    C28H37N3O
 Framework group  C1[X(C28H37N3O)]
 Deg. of freedom   201
 Full point group                 C1      NOp   1
                          Input orientation:                          
 ---------------------------------------------------------------------
 Center     Atomic      Atomic             Coordinates (Angstroms)
 Number     Number       Type             X           Y           Z
 ---------------------------------------------------------------------
      1          6           0       -0.509396    2.727036    0.360186
      2          6           0       -1.915228    2.930209    0.249575
      3          6           0       -2.465362    4.198014    0.142591
      4          6           0       -1.585989    5.299051    0.151673
      5          6           0       -0.210995    5.130338    0.257358
      6          6           0        0.364810    3.840965    0.358093
      7          6           0       -1.416114    0.768773    0.394832
      8          1           0       -3.535050    4.342859    0.053096
      9          1           0       -1.995619    6.298698    0.073640
     10          1           0        0.443054    5.994817    0.260002
     11          7           0       -2.444457    1.660279    0.275079
     12          6           0       -3.022937   -1.131228    0.337712
     13          6           0       -1.660995   -0.645563    0.448227
     14          6           0       -0.572147   -1.525483    0.601218
     15          6           0       -0.748882   -2.895750    0.661377
     16          6           0       -2.074895   -3.375253    0.544321
     17          6           0       -3.191873   -2.568150    0.381681
     18          1           0        0.420646   -1.094159    0.675491
     19          1           0       -2.227025   -4.444450    0.584116
     20          6           0        0.460419   -3.823589    0.837928
     21          6           0       -4.595448   -3.174275    0.238933
     22          8           0       -4.020401   -0.320303    0.203979
     23          7           0       -0.213966    1.398222    0.448925
     24          6           0        1.774601    3.675968    0.429445
     25          1           0        2.413283    4.552681    0.417772
     26          7           0        2.351773    2.507577    0.499949
     27          6           0        3.806371    2.274482    0.502626
     28          6           0        4.359332    2.324779   -0.930673
     29          6           0        4.547170    3.249756    1.422802
     30          1           0        3.929352    1.260975    0.892107
     31          6           0        5.867147    2.051225   -0.938261
     32          1           0        4.157014    3.320357   -1.342321
     33          1           0        3.829939    1.600067   -1.555050
     34          6           0        6.052116    2.958485    1.411699
     35          1           0        4.386678    4.275722    1.074520
     36          1           0        4.139900    3.179601    2.434777
     37          6           0        6.618154    3.013179   -0.011652
     38          1           0        6.246680    2.125362   -1.961132
     39          1           0        6.045218    1.020681   -0.608540
     40          1           0        6.563996    3.677049    2.058094
     41          1           0        6.233142    1.963947    1.836729
     42          1           0        7.685406    2.773635   -0.003214
     43          1           0        6.524577    4.035788   -0.397644
     44          1           0       -3.392280    1.235597    0.212029
     45          1           0        1.717257    1.696438    0.488626
     46          6           0       -5.514562   -2.649679    1.361602
     47          1           0       -5.593906   -1.565109    1.313443
     48          1           0       -6.514103   -3.086049    1.265014
     49          1           0       -5.115962   -2.927380    2.342198
     50          6           0       -4.581839   -4.708562    0.328331
     51          1           0       -5.602729   -5.084193    0.218143
     52          1           0       -3.972450   -5.157420   -0.460969
     53          1           0       -4.199695   -5.053943    1.293035
     54          6           0       -5.184730   -2.788374   -1.134484
     55          1           0       -5.198786   -1.705499   -1.252115
     56          1           0       -4.585124   -3.218401   -1.942295
     57          1           0       -6.206570   -3.169908   -1.229522
     58          6           0        1.190758   -3.469640    2.148615
     59          1           0        2.061953   -4.116814    2.289364
     60          1           0        1.535621   -2.432664    2.138915
     61          1           0        0.525969   -3.595555    3.007340
     62          6           0        1.430544   -3.629669   -0.345090
     63          1           0        1.768563   -2.592363   -0.409584
     64          1           0        2.311642   -4.268732   -0.230398
     65          1           0        0.942557   -3.886520   -1.289502
     66          6           0        0.058944   -5.304805    0.893188
     67          1           0       -0.601161   -5.513907    1.739415
     68          1           0       -0.452433   -5.615289   -0.021745
     69          1           0        0.953670   -5.922940    1.003423
 ---------------------------------------------------------------------
 Rotational constants (GHZ):           0.1812755           0.0736898           0.0548601
 Leave Link  202 at Fri Dec 21 16:00:05 2018, MaxMem=  1342177280 cpu:               0.7 elap:               0.1
 (Enter /gpfs/apps/hpc/Apps/Restricted/Gaussian/Rev_A.03/g16/l301.exe)
 Standard basis: 6-31G(d,p) (6D, 7F)
 Ernie: Thresh=  0.10000D-02 Tol=  0.10000D-05 Strict=F.
   665 basis functions,  1155 primitive gaussians,   665 cartesian basis functions
   117 alpha electrons      117 beta electrons
       nuclear repulsion energy      3174.0663355139 Hartrees.
 IExCor=  402 DFT=T Ex+Corr=B3LYP ExCW=0 ScaHFX=  0.200000
 ScaDFX=  0.800000  0.720000  1.000000  0.810000 ScalE2=  1.000000  1.000000
 IRadAn=      5 IRanWt=     -1 IRanGd=            0 ICorTp=0 IEmpDi=141
 NAtoms=   69 NActive=   69 NUniq=   69 SFac= 1.00D+00 NAtFMM=   60 NAOKFM=T Big=T
 Integral buffers will be    131072 words long.
 Raffenetti 2 integral format.
 Two-electron integral symmetry is turned off.
 R6Disp:  Grimme-D3(BJ) Dispersion energy=       -0.1500464199 Hartrees.
 Nuclear repulsion after empirical dispersion term =     3173.9162890940 Hartrees.
 Using the following non-standard input for PCM:
 radii=bondi
 dis
 rep
 cav
 --- end of non-standard input.
 ------------------------------------------------------------------------------
 Polarizable Continuum Model (PCM)
 =================================
 Model                : C-PCM.
 Atomic radii         : Bondi.
 Polarization charges : Total charges.
 Charge compensation  : None.
 Solution method      : On-the-fly selection.
 Cavity type          : Scaled VdW (van der Waals Surface) (Alpha=1.100).
 Cavity algorithm     : GePol (No added spheres)
                        Default sphere list used, NSphG=   69.
                        Lebedev-Laikov grids with approx.  5.0 points / Ang**2.
                        Smoothing algorithm: York/Karplus (Gamma=1.0000).
                        Polarization charges: spherical gaussians, with
                                              point-specific exponents (IZeta= 3).
                        Self-potential: point-specific (ISelfS= 7).
                        Self-field    : sphere-specific E.n sum rule (ISelfD= 2).
 1st derivatives      : Analytical E(r).r(x)/FMM algorithm (CHGder, D1EAlg=3).
                        Cavity 1st derivative terms included.
 Solvent              : Dichloromethane, Eps=   8.930000 Eps(inf)=   2.028346
 ------------------------------------------------------------------------------
 GePol: Number of generator spheres                  =      69
 GePol: Total number of spheres                      =      69
 GePol: Number of exposed spheres                    =      69 (100.00%)
 GePol: Number of points                             =    4361
 GePol: Average weight of points                     =       0.12
 GePol: Minimum weight of points                     =   0.68D-11
 GePol: Maximum weight of points                     =    0.21770
 GePol: Number of points with low weight             =     348
 GePol: Fraction of low-weight points (<1% of avg)   =       7.98%
 GePol: Cavity surface area                          =    518.270 Ang**2
 GePol: Cavity volume                                =    498.793 Ang**3
 PCM non-electrostatic energy =         0.0256219438 Hartrees.
 Nuclear repulsion after PCM non-electrostatic terms =     3173.9419110378 Hartrees.
 Leave Link  301 at Fri Dec 21 16:00:05 2018, MaxMem=  1342177280 cpu:               2.9 elap:               0.2
 (Enter /gpfs/apps/hpc/Apps/Restricted/Gaussian/Rev_A.03/g16/l302.exe)
 NPDir=0 NMtPBC=     1 NCelOv=     1 NCel=       1 NClECP=     1 NCelD=      1
         NCelK=      1 NCelE2=     1 NClLst=     1 CellRange=     0.0.
 One-electron integrals computed using PRISM.
 NBasis=   665 RedAO= T EigKep=  3.14D-04  NBF=   665
 NBsUse=   665 1.00D-06 EigRej= -1.00D+00 NBFU=   665
 Precomputing XC quadrature grid using
 IXCGrd= 4 IRadAn=           5 IRanWt=          -1 IRanGd=           0 AccXCQ= 0.00D+00.
 Generated NRdTot=       0 NPtTot=           0 NUsed=           0 NTot=          32
 NSgBfM=   650   650   650   650   650 MxSgAt=    69 MxSgA2=    69.
 Leave Link  302 at Fri Dec 21 16:00:06 2018, MaxMem=  1342177280 cpu:              16.9 elap:               1.1
 (Enter /gpfs/apps/hpc/Apps/Restricted/Gaussian/Rev_A.03/g16/l303.exe)
 DipDrv:  MaxL=1.
 Leave Link  303 at Fri Dec 21 16:00:06 2018, MaxMem=  1342177280 cpu:               1.3 elap:               0.1
 (Enter /gpfs/apps/hpc/Apps/Restricted/Gaussian/Rev_A.03/g16/l401.exe)
 ExpMin= 1.61D-01 ExpMax= 5.48D+03 ExpMxC= 8.25D+02 IAcc=3 IRadAn=         5 AccDes= 0.00D+00
 Harris functional with IExCor=  402 and IRadAn=       5 diagonalized for initial guess.
 HarFok:  IExCor=  402 AccDes= 0.00D+00 IRadAn=         5 IDoV= 1 UseB2=F ITyADJ=14
 ICtDFT=  3500011 ScaDFX=  1.000000  1.000000  1.000000  1.000000
 FoFCou: FMM=F IPFlag=           0 FMFlag=      100000 FMFlg1=        2001
         NFxFlg=           0 DoJE=T BraDBF=F KetDBF=T FulRan=T
         wScrn=  0.000000 ICntrl=       500 IOpCl=  0 I1Cent=   200000004 NGrid=           0
         NMat0=    1 NMatS0=      1 NMatT0=    0 NMatD0=    1 NMtDS0=    0 NMtDT0=    0
 Symmetry not used in FoFCou.
 Harris En= -1329.06399398262    
 JPrj=0 DoOrth=F DoCkMO=F.
 Leave Link  401 at Fri Dec 21 16:00:10 2018, MaxMem=  1342177280 cpu:              56.6 elap:               3.6
 (Enter /gpfs/apps/hpc/Apps/Restricted/Gaussian/Rev_A.03/g16/l502.exe)
 Two-electron integral symmetry not used.
 Closed shell SCF:
 Using DIIS extrapolation, IDIIS=  1040.
 NGot=  1342177280 LenX=  1341276554 LenY=  1340833664
 Requested convergence on RMS density matrix=1.00D-08 within 128 cycles.
 Requested convergence on MAX density matrix=1.00D-06.
 Requested convergence on             energy=1.00D-06.
 No special actions if energy rises.
 Fock matrices will be formed incrementally for  20 cycles.

 Cycle   1  Pass 1  IDiag  1:
 FoFJK:  IHMeth= 1 ICntrl=       0 DoSepK=F KAlg= 0 I1Cent=           0 FoldK=F
 IRaf= 770000000 NMat=       1 IRICut=       1 DoRegI=T DoRafI=F ISym2E= 0 IDoP0=0 IntGTp=1.
 FoFCou: FMM=T IPFlag=           0 FMFlag=      100000 FMFlg1=        2001
         NFxFlg=           0 DoJE=F BraDBF=F KetDBF=F FulRan=T
         wScrn=  0.000000 ICntrl=         0 IOpCl=  0 I1Cent=           0 NGrid=           0
         NMat0=    1 NMatS0=      1 NMatT0=    0 NMatD0=    1 NMtDS0=    0 NMtDT0=    0
 Symmetry not used in FoFCou.
 FMM levels:  10  Number of levels for PrismC:   9
 Inv3:  Mode=1 IEnd=    57054963.
 Iteration    1 A*A^-1 deviation from unit magnitude is 1.64D-14 for   2997.
 Iteration    1 A*A^-1 deviation from orthogonality  is 4.27D-15 for   3236   1309.
 Iteration    1 A^-1*A deviation from unit magnitude is 1.64D-14 for   2997.
 Iteration    1 A^-1*A deviation from orthogonality  is 5.12D-15 for    862    753.
 E= -1328.10596146024    
 DIIS: error= 2.95D-02 at cycle   1 NSaved=   1.
 NSaved= 1 IEnMin= 1 EnMin= -1328.10596146024     IErMin= 1 ErrMin= 2.95D-02
 ErrMax= 2.95D-02  0.00D+00 EMaxC= 1.00D-01 BMatC= 8.42D-01 BMatP= 8.42D-01
 IDIUse=3 WtCom= 7.05D-01 WtEn= 2.95D-01
 Coeff-Com:  0.100D+01
 Coeff-En:   0.100D+01
 Coeff:      0.100D+01
 Gap=     0.058 Goal=   None    Shift=    0.000
 GapD=    0.058 DampG=0.500 DampE=0.500 DampFc=0.2500 IDamp=-1.
 Damping current iteration by 2.50D-01
 RMSDP=3.44D-03 MaxDP=2.16D-01              OVMax= 4.72D-01

 Cycle   2  Pass 1  IDiag  1:
 RMSU=  8.40D-04    CP:  9.85D-01
 E= -1328.42085661892     Delta-E=       -0.314895158683 Rises=F Damp=T
 DIIS: error= 1.57D-02 at cycle   2 NSaved=   2.
 NSaved= 2 IEnMin= 2 EnMin= -1328.42085661892     IErMin= 2 ErrMin= 1.57D-02
 ErrMax= 1.57D-02  0.00D+00 EMaxC= 1.00D-01 BMatC= 2.18D-01 BMatP= 8.42D-01
 IDIUse=3 WtCom= 8.43D-01 WtEn= 1.57D-01
 Coeff-Com: -0.814D+00 0.181D+01
 Coeff-En:   0.000D+00 0.100D+01
 Coeff:     -0.686D+00 0.169D+01
 Gap=     0.079 Goal=   None    Shift=    0.000
 RMSDP=1.21D-03 MaxDP=8.01D-02 DE=-3.15D-01 OVMax= 3.91D-01

 Cycle   3  Pass 1  IDiag  1:
 RMSU=  9.54D-04    CP:  9.55D-01  1.78D+00
 E= -1328.93234218348     Delta-E=       -0.511485564555 Rises=F Damp=F
 DIIS: error= 1.15D-02 at cycle   3 NSaved=   3.
 NSaved= 3 IEnMin= 3 EnMin= -1328.93234218348     IErMin= 3 ErrMin= 1.15D-02
 ErrMax= 1.15D-02  0.00D+00 EMaxC= 1.00D-01 BMatC= 6.50D-02 BMatP= 2.18D-01
 IDIUse=3 WtCom= 8.85D-01 WtEn= 1.15D-01
 Coeff-Com: -0.438D+00 0.947D+00 0.490D+00
 Coeff-En:   0.000D+00 0.000D+00 0.100D+01
 Coeff:     -0.387D+00 0.838D+00 0.549D+00
 Gap=     0.082 Goal=   None    Shift=    0.000
 RMSDP=6.06D-04 MaxDP=7.53D-02 DE=-5.11D-01 OVMax= 1.40D-01

 Cycle   4  Pass 1  IDiag  1:
 RMSU=  4.52D-04    CP:  9.60D-01  1.87D+00  5.87D-01
 E= -1328.97657849698     Delta-E=       -0.044236313501 Rises=F Damp=F
 DIIS: error= 6.37D-03 at cycle   4 NSaved=   4.
 NSaved= 4 IEnMin= 4 EnMin= -1328.97657849698     IErMin= 4 ErrMin= 6.37D-03
 ErrMax= 6.37D-03  0.00D+00 EMaxC= 1.00D-01 BMatC= 1.69D-02 BMatP= 6.50D-02
 IDIUse=3 WtCom= 9.36D-01 WtEn= 6.37D-02
 Coeff-Com: -0.864D-01 0.186D+00 0.334D+00 0.566D+00
 Coeff-En:   0.000D+00 0.000D+00 0.215D+00 0.785D+00
 Coeff:     -0.809D-01 0.175D+00 0.326D+00 0.580D+00
 Gap=     0.083 Goal=   None    Shift=    0.000
 RMSDP=2.56D-04 MaxDP=3.49D-02 DE=-4.42D-02 OVMax= 5.60D-02

 Cycle   5  Pass 1  IDiag  1:
 RMSU=  1.27D-04    CP:  9.59D-01  1.83D+00  7.06D-01  5.84D-01
 E= -1328.98952770258     Delta-E=       -0.012949205597 Rises=F Damp=F
 DIIS: error= 1.61D-03 at cycle   5 NSaved=   5.
 NSaved= 5 IEnMin= 5 EnMin= -1328.98952770258     IErMin= 5 ErrMin= 1.61D-03
 ErrMax= 1.61D-03  0.00D+00 EMaxC= 1.00D-01 BMatC= 1.36D-03 BMatP= 1.69D-02
 IDIUse=3 WtCom= 9.84D-01 WtEn= 1.61D-02
 Coeff-Com: -0.138D-01 0.263D-01 0.126D+00 0.321D+00 0.541D+00
 Coeff-En:   0.000D+00 0.000D+00 0.000D+00 0.257D-01 0.974D+00
 Coeff:     -0.135D-01 0.259D-01 0.124D+00 0.316D+00 0.548D+00
 Gap=     0.085 Goal=   None    Shift=    0.000
 RMSDP=7.42D-05 MaxDP=7.92D-03 DE=-1.29D-02 OVMax= 1.54D-02

 Cycle   6  Pass 1  IDiag  1:
 RMSU=  3.66D-05    CP:  9.59D-01  1.83D+00  7.04D-01  6.64D-01  5.82D-01
 E= -1328.99068301724     Delta-E=       -0.001155314662 Rises=F Damp=F
 DIIS: error= 2.13D-04 at cycle   6 NSaved=   6.
 NSaved= 6 IEnMin= 6 EnMin= -1328.99068301724     IErMin= 6 ErrMin= 2.13D-04
 ErrMax= 2.13D-04  0.00D+00 EMaxC= 1.00D-01 BMatC= 9.04D-05 BMatP= 1.36D-03
 IDIUse=3 WtCom= 9.98D-01 WtEn= 2.13D-03
 Coeff-Com: -0.189D-02 0.187D-02 0.388D-01 0.122D+00 0.292D+00 0.547D+00
 Coeff-En:   0.000D+00 0.000D+00 0.000D+00 0.000D+00 0.000D+00 0.100D+01
 Coeff:     -0.189D-02 0.186D-02 0.387D-01 0.122D+00 0.291D+00 0.548D+00
 Gap=     0.085 Goal=   None    Shift=    0.000
 RMSDP=1.86D-05 MaxDP=1.69D-03 DE=-1.16D-03 OVMax= 3.94D-03

 Cycle   7  Pass 1  IDiag  1:
 RMSU=  1.32D-05    CP:  9.59D-01  1.83D+00  7.05D-01  6.61D-01  6.37D-01
                    CP:  7.05D-01
 E= -1328.99076641107     Delta-E=       -0.000083393830 Rises=F Damp=F
 DIIS: error= 1.05D-04 at cycle   7 NSaved=   7.
 NSaved= 7 IEnMin= 7 EnMin= -1328.99076641107     IErMin= 7 ErrMin= 1.05D-04
 ErrMax= 1.05D-04  0.00D+00 EMaxC= 1.00D-01 BMatC= 9.04D-06 BMatP= 9.04D-05
 IDIUse=3 WtCom= 9.99D-01 WtEn= 1.05D-03
 Coeff-Com:  0.127D-03-0.140D-02 0.665D-02 0.307D-01 0.101D+00 0.298D+00
 Coeff-Com:  0.565D+00
 Coeff-En:   0.000D+00 0.000D+00 0.000D+00 0.000D+00 0.000D+00 0.103D-01
 Coeff-En:   0.990D+00
 Coeff:      0.127D-03-0.140D-02 0.665D-02 0.307D-01 0.100D+00 0.298D+00
 Coeff:      0.566D+00
 Gap=     0.085 Goal=   None    Shift=    0.000
 RMSDP=5.84D-06 MaxDP=4.32D-04 DE=-8.34D-05 OVMax= 1.02D-03

 Cycle   8  Pass 1  IDiag  1:
 RMSU=  3.40D-06    CP:  9.59D-01  1.83D+00  7.05D-01  6.64D-01  6.40D-01
                    CP:  7.73D-01  7.11D-01
 E= -1328.99077508879     Delta-E=       -0.000008677716 Rises=F Damp=F
 DIIS: error= 3.94D-05 at cycle   8 NSaved=   8.
 NSaved= 8 IEnMin= 8 EnMin= -1328.99077508879     IErMin= 8 ErrMin= 3.94D-05
 ErrMax= 3.94D-05  0.00D+00 EMaxC= 1.00D-01 BMatC= 6.75D-07 BMatP= 9.04D-06
 IDIUse=1 WtCom= 1.00D+00 WtEn= 0.00D+00
 Coeff-Com: -0.180D-03-0.116D-03-0.162D-03 0.418D-02 0.237D-01 0.941D-01
 Coeff-Com:  0.270D+00 0.608D+00
 Coeff:     -0.180D-03-0.116D-03-0.162D-03 0.418D-02 0.237D-01 0.941D-01
 Coeff:      0.270D+00 0.608D+00
 Gap=     0.085 Goal=   None    Shift=    0.000
 RMSDP=1.82D-06 MaxDP=1.71D-04 DE=-8.68D-06 OVMax= 4.37D-04

 Cycle   9  Pass 1  IDiag  1:
 RMSU=  1.47D-06    CP:  9.59D-01  1.83D+00  7.05D-01  6.64D-01  6.42D-01
                    CP:  7.78D-01  7.66D-01  7.85D-01
 E= -1328.99077568698     Delta-E=       -0.000000598191 Rises=F Damp=F
 DIIS: error= 1.36D-05 at cycle   9 NSaved=   9.
 NSaved= 9 IEnMin= 9 EnMin= -1328.99077568698     IErMin= 9 ErrMin= 1.36D-05
 ErrMax= 1.36D-05  0.00D+00 EMaxC= 1.00D-01 BMatC= 1.32D-07 BMatP= 6.75D-07
 IDIUse=1 WtCom= 1.00D+00 WtEn= 0.00D+00
 Coeff-Com: -0.140D-03 0.137D-03-0.120D-02-0.221D-02-0.958D-03 0.869D-02
 Coeff-Com:  0.657D-01 0.348D+00 0.582D+00
 Coeff:     -0.140D-03 0.137D-03-0.120D-02-0.221D-02-0.958D-03 0.869D-02
 Coeff:      0.657D-01 0.348D+00 0.582D+00
 Gap=     0.085 Goal=   None    Shift=    0.000
 RMSDP=6.83D-07 MaxDP=6.63D-05 DE=-5.98D-07 OVMax= 1.63D-04

 Cycle  10  Pass 1  IDiag  1:
 RMSU=  4.25D-07    CP:  9.59D-01  1.83D+00  7.05D-01  6.64D-01  6.43D-01
                    CP:  7.83D-01  7.79D-01  8.70D-01  7.81D-01
 E= -1328.99077581122     Delta-E=       -0.000000124242 Rises=F Damp=F
 DIIS: error= 2.67D-06 at cycle  10 NSaved=  10.
 NSaved=10 IEnMin=10 EnMin= -1328.99077581122     IErMin=10 ErrMin= 2.67D-06
 ErrMax= 2.67D-06  0.00D+00 EMaxC= 1.00D-01 BMatC= 1.02D-08 BMatP= 1.32D-07
 IDIUse=1 WtCom= 1.00D+00 WtEn= 0.00D+00
 Coeff-Com: -0.655D-04 0.810D-04-0.696D-03-0.154D-02-0.236D-02-0.339D-02
 Coeff-Com:  0.118D-01 0.143D+00 0.302D+00 0.550D+00
 Coeff:     -0.655D-04 0.810D-04-0.696D-03-0.154D-02-0.236D-02-0.339D-02
 Coeff:      0.118D-01 0.143D+00 0.302D+00 0.550D+00
 Gap=     0.085 Goal=   None    Shift=    0.000
 RMSDP=2.25D-07 MaxDP=1.72D-05 DE=-1.24D-07 OVMax= 4.59D-05

 Cycle  11  Pass 1  IDiag  1:
 RMSU=  1.48D-07    CP:  9.59D-01  1.83D+00  7.05D-01  6.64D-01  6.43D-01
                    CP:  7.85D-01  7.83D-01  8.87D-01  8.07D-01  7.06D-01
 E= -1328.99077582109     Delta-E=       -0.000000009872 Rises=F Damp=F
 DIIS: error= 1.11D-06 at cycle  11 NSaved=  11.
 NSaved=11 IEnMin=11 EnMin= -1328.99077582109     IErMin=11 ErrMin= 1.11D-06
 ErrMax= 1.11D-06  0.00D+00 EMaxC= 1.00D-01 BMatC= 1.31D-09 BMatP= 1.02D-08
 IDIUse=1 WtCom= 1.00D+00 WtEn= 0.00D+00
 Coeff-Com: -0.251D-04 0.425D-04-0.148D-03-0.355D-03-0.974D-03-0.346D-02
 Coeff-Com: -0.652D-02 0.118D-01 0.403D-01 0.270D+00 0.690D+00
 Coeff:     -0.251D-04 0.425D-04-0.148D-03-0.355D-03-0.974D-03-0.346D-02
 Coeff:     -0.652D-02 0.118D-01 0.403D-01 0.270D+00 0.690D+00
 Gap=     0.085 Goal=   None    Shift=    0.000
 RMSDP=9.15D-08 MaxDP=6.21D-06 DE=-9.87D-09 OVMax= 3.04D-05

 Cycle  12  Pass 1  IDiag  1:
 RMSU=  4.53D-08    CP:  9.59D-01  1.83D+00  7.05D-01  6.64D-01  6.43D-01
                    CP:  7.85D-01  7.85D-01  8.96D-01  8.21D-01  8.02D-01
                    CP:  7.39D-01
 E= -1328.99077582246     Delta-E=       -0.000000001372 Rises=F Damp=F
 DIIS: error= 3.05D-07 at cycle  12 NSaved=  12.
 NSaved=12 IEnMin=12 EnMin= -1328.99077582246     IErMin=12 ErrMin= 3.05D-07
 ErrMax= 3.05D-07  0.00D+00 EMaxC= 1.00D-01 BMatC= 1.40D-10 BMatP= 1.31D-09
 IDIUse=1 WtCom= 1.00D+00 WtEn= 0.00D+00
 Coeff-Com: -0.887D-05 0.164D-04-0.271D-04-0.584D-04-0.300D-03-0.148D-02
 Coeff-Com: -0.416D-02-0.440D-02-0.348D-02 0.859D-01 0.345D+00 0.583D+00
 Coeff:     -0.887D-05 0.164D-04-0.271D-04-0.584D-04-0.300D-03-0.148D-02
 Coeff:     -0.416D-02-0.440D-02-0.348D-02 0.859D-01 0.345D+00 0.583D+00
 Gap=     0.085 Goal=   None    Shift=    0.000
 RMSDP=2.57D-08 MaxDP=1.93D-06 DE=-1.37D-09 OVMax= 5.18D-06

 Cycle  13  Pass 1  IDiag  1:
 RMSU=  1.68D-08    CP:  9.59D-01  1.83D+00  7.05D-01  6.64D-01  6.43D-01
                    CP:  7.85D-01  7.85D-01  8.98D-01  8.23D-01  8.08D-01
                    CP:  8.19D-01  7.47D-01
 E= -1328.99077582260     Delta-E=       -0.000000000140 Rises=F Damp=F
 DIIS: error= 9.16D-08 at cycle  13 NSaved=  13.
 NSaved=13 IEnMin=13 EnMin= -1328.99077582260     IErMin=13 ErrMin= 9.16D-08
 ErrMax= 9.16D-08  0.00D+00 EMaxC= 1.00D-01 BMatC= 1.58D-11 BMatP= 1.40D-10
 IDIUse=1 WtCom= 1.00D+00 WtEn= 0.00D+00
 Coeff-Com: -0.784D-06 0.180D-05 0.649D-05 0.236D-04-0.103D-04-0.276D-03
 Coeff-Com: -0.124D-02-0.413D-02-0.835D-02 0.278D-02 0.796D-01 0.299D+00
 Coeff-Com:  0.633D+00
 Coeff:     -0.784D-06 0.180D-05 0.649D-05 0.236D-04-0.103D-04-0.276D-03
 Coeff:     -0.124D-02-0.413D-02-0.835D-02 0.278D-02 0.796D-01 0.299D+00
 Coeff:      0.633D+00
 Gap=     0.085 Goal=   None    Shift=    0.000
 RMSDP=8.43D-09 MaxDP=6.54D-07 DE=-1.40D-10 OVMax= 1.66D-06

 Error on total polarization charges =  0.04675
 SCF Done:  E(RB3LYP) =  -1328.99077582     A.U. after   13 cycles
            NFock= 13  Conv=0.84D-08     -V/T= 2.0096
 KE= 1.316319554210D+03 PE=-9.430184722810D+03 EE= 3.610932481740D+03
 Leave Link  502 at Fri Dec 21 16:02:04 2018, MaxMem=  1342177280 cpu:            1761.9 elap:             114.2
 (Enter /gpfs/apps/hpc/Apps/Restricted/Gaussian/Rev_A.03/g16/l601.exe)
 Copying SCF densities to generalized density rwf, IOpCl= 0 IROHF=0.

 **********************************************************************

            Population analysis using the SCF density.

 **********************************************************************

 Alpha  occ. eigenvalues --  -19.08151 -14.40520 -14.36508 -14.32454 -10.27692
 Alpha  occ. eigenvalues --  -10.25680 -10.23792 -10.22941 -10.22715 -10.22510
 Alpha  occ. eigenvalues --  -10.21184 -10.20737 -10.20470 -10.19513 -10.18881
 Alpha  occ. eigenvalues --  -10.18854 -10.18732 -10.18285 -10.18166 -10.18074
 Alpha  occ. eigenvalues --  -10.17785 -10.17364 -10.17044 -10.16782 -10.16567
 Alpha  occ. eigenvalues --  -10.16480 -10.16211 -10.16195 -10.16156 -10.15772
 Alpha  occ. eigenvalues --  -10.15199 -10.15107  -1.01597  -0.98838  -0.96778
 Alpha  occ. eigenvalues --   -0.87659  -0.85923  -0.83791  -0.83554  -0.80606
 Alpha  occ. eigenvalues --   -0.79176  -0.78258  -0.75597  -0.74747  -0.74243
 Alpha  occ. eigenvalues --   -0.71641  -0.69455  -0.68251  -0.67481  -0.67318
 Alpha  occ. eigenvalues --   -0.66850  -0.66457  -0.63929  -0.62598  -0.61711
 Alpha  occ. eigenvalues --   -0.60944  -0.60141  -0.58196  -0.57568  -0.56183
 Alpha  occ. eigenvalues --   -0.55179  -0.53854  -0.51885  -0.51044  -0.49662
 Alpha  occ. eigenvalues --   -0.49425  -0.47754  -0.47074  -0.46270  -0.45300
 Alpha  occ. eigenvalues --   -0.45142  -0.44596  -0.44397  -0.43970  -0.43708
 Alpha  occ. eigenvalues --   -0.43319  -0.42661  -0.42366  -0.41941  -0.41787
 Alpha  occ. eigenvalues --   -0.41683  -0.40981  -0.40113  -0.39992  -0.39001
 Alpha  occ. eigenvalues --   -0.38380  -0.37985  -0.37793  -0.37426  -0.37146
 Alpha  occ. eigenvalues --   -0.36758  -0.36692  -0.35881  -0.35581  -0.35359
 Alpha  occ. eigenvalues --   -0.35135  -0.34962  -0.34683  -0.34560  -0.33542
 Alpha  occ. eigenvalues --   -0.32388  -0.32369  -0.32178  -0.31715  -0.31315
 Alpha  occ. eigenvalues --   -0.31252  -0.31194  -0.30752  -0.29836  -0.29338
 Alpha  occ. eigenvalues --   -0.28791  -0.28589  -0.25950  -0.23951  -0.21799
 Alpha  occ. eigenvalues --   -0.21253  -0.17066
 Alpha virt. eigenvalues --   -0.08574  -0.01767   0.01461   0.03332   0.03987
 Alpha virt. eigenvalues --    0.07821   0.08324   0.08761   0.09381   0.10374
 Alpha virt. eigenvalues --    0.10802   0.11008   0.12613   0.13541   0.14065
 Alpha virt. eigenvalues --    0.14380   0.14716   0.14958   0.15296   0.15455
 Alpha virt. eigenvalues --    0.15797   0.16321   0.16786   0.16978   0.17111
 Alpha virt. eigenvalues --    0.17407   0.17446   0.17610   0.17782   0.17960
 Alpha virt. eigenvalues --    0.18048   0.18152   0.18408   0.18813   0.19165
 Alpha virt. eigenvalues --    0.19712   0.19793   0.20001   0.20444   0.21095
 Alpha virt. eigenvalues --    0.21532   0.21929   0.22149   0.22220   0.22643
 Alpha virt. eigenvalues --    0.22720   0.23346   0.23486   0.23815   0.24143
 Alpha virt. eigenvalues --    0.24259   0.24899   0.25059   0.25773   0.26075
 Alpha virt. eigenvalues --    0.26451   0.26718   0.27521   0.27591   0.27858
 Alpha virt. eigenvalues --    0.28405   0.28706   0.29773   0.30260   0.30972
 Alpha virt. eigenvalues --    0.31576   0.32439   0.36564   0.36738   0.37623
 Alpha virt. eigenvalues --    0.39181   0.39905   0.40740   0.42656   0.44509
 Alpha virt. eigenvalues --    0.46220   0.47551   0.48437   0.49301   0.50038
 Alpha virt. eigenvalues --    0.50227   0.50772   0.50856   0.51136   0.51267
 Alpha virt. eigenvalues --    0.52065   0.52181   0.52232   0.52778   0.52972
 Alpha virt. eigenvalues --    0.53299   0.53637   0.54334   0.54759   0.55405
 Alpha virt. eigenvalues --    0.55560   0.55768   0.56218   0.56260   0.57201
 Alpha virt. eigenvalues --    0.57792   0.58297   0.59254   0.59527   0.60041
 Alpha virt. eigenvalues --    0.60809   0.61289   0.61749   0.62148   0.62284
 Alpha virt. eigenvalues --    0.62474   0.62997   0.63118   0.63615   0.64088
 Alpha virt. eigenvalues --    0.64301   0.65303   0.65389   0.65790   0.66560
 Alpha virt. eigenvalues --    0.66981   0.67417   0.68105   0.69271   0.69757
 Alpha virt. eigenvalues --    0.70773   0.71383   0.71725   0.72022   0.72300
 Alpha virt. eigenvalues --    0.73390   0.73962   0.74095   0.74403   0.76571
 Alpha virt. eigenvalues --    0.76879   0.77245   0.78042   0.78542   0.79193
 Alpha virt. eigenvalues --    0.79782   0.80189   0.80639   0.81168   0.81629
 Alpha virt. eigenvalues --    0.82056   0.82580   0.83026   0.83889   0.84083
 Alpha virt. eigenvalues --    0.84161   0.84970   0.85244   0.86123   0.86521
 Alpha virt. eigenvalues --    0.86583   0.87025   0.87077   0.87395   0.87756
 Alpha virt. eigenvalues --    0.88294   0.88532   0.88698   0.88812   0.89011
 Alpha virt. eigenvalues --    0.89604   0.89853   0.90336   0.90546   0.90802
 Alpha virt. eigenvalues --    0.90925   0.91079   0.91373   0.91996   0.92425
 Alpha virt. eigenvalues --    0.92955   0.93125   0.93971   0.94230   0.94478
 Alpha virt. eigenvalues --    0.94576   0.94827   0.95109   0.95234   0.96265
 Alpha virt. eigenvalues --    0.96648   0.96991   0.97703   0.98200   0.99093
 Alpha virt. eigenvalues --    0.99261   1.00212   1.00514   1.01457   1.03974
 Alpha virt. eigenvalues --    1.04764   1.05980   1.06331   1.07778   1.08756
 Alpha virt. eigenvalues --    1.10305   1.11720   1.12035   1.12541   1.13693
 Alpha virt. eigenvalues --    1.14948   1.15736   1.17171   1.18167   1.18675
 Alpha virt. eigenvalues --    1.20056   1.20995   1.21665   1.21782   1.23880
 Alpha virt. eigenvalues --    1.24028   1.24751   1.25526   1.27189   1.27761
 Alpha virt. eigenvalues --    1.27974   1.29038   1.29125   1.29478   1.30750
 Alpha virt. eigenvalues --    1.31317   1.32189   1.34565   1.35292   1.35662
 Alpha virt. eigenvalues --    1.36461   1.37704   1.38131   1.40547   1.41562
 Alpha virt. eigenvalues --    1.42265   1.42436   1.43720   1.44029   1.44477
 Alpha virt. eigenvalues --    1.45345   1.45696   1.47605   1.48354   1.48544
 Alpha virt. eigenvalues --    1.49335   1.49598   1.50985   1.51494   1.51856
 Alpha virt. eigenvalues --    1.52211   1.53553   1.54168   1.55097   1.56437
 Alpha virt. eigenvalues --    1.57467   1.57983   1.59598   1.60333   1.61474
[...]
 0.00000020,-0.00000127,-0.00000001,-0.00000026,0.00000117,0.00036612,0
 .00126226,0.00129478,-0.00007213,-0.00007797,-0.00010940,0.00037425,0.
 00008842,0.00005359,-0.00026092,-0.00009096,-0.00036346,-0.00103422,-0
 .00658281,-0.00084094,-0.00155826,-0.00042322,0.00168524,-0.00013239,0
 .00019494,-0.00022294,0.00027808,0.00004059,-0.00004331,-0.02945052,-0
 .05442734,0.03419278,0.03378267,0.05927666,-0.00001862,0.00001446,-0.0
 0000249,0.00001975,-0.00002150,0.00000036,0.00000342,0.00003513,-0.000
 00070,-0.00003892,-0.00001703,-0.00000175,0.00003171,-0.00003049,0.000
 00397,-0.00003351,0.00001400,-0.00000248,0.00002172,0.00013235,-0.0000
 0452,0.00000061,0.00000080,-0.00000041,-0.00000014,-0.00000135,-0.0000
 0012,-0.00000038,-0.00000090,-0.00000013,0.00000250,-0.00002013,0.0000
 0501,0.00015530,0.00004303,-0.00004703,0.00000843,-0.00012829,-0.00000
 213,-0.00023495,0.00019116,-0.00004786,0.00037622,-0.00017146,0.000121
 58,0.00088069,0.00057873,0.00001945,-0.00030219,-0.00031604,0.00000865
 ,-0.00002950,-0.00005598,0.00001076,-0.00102053,-0.00002357,-0.0007720
 0,-0.00028080,-0.00009432,-0.00169724,-0.00003772,-0.00000033,0.000037
 99,-0.00002565,-0.00008696,0.00000790,-0.00003974,-0.00004604,-0.00000
 026,0.00003989,-0.00002537,0.00000321,-0.00000004,-0.00000040,0.,-0.00
 001631,0.00003123,-0.00000375,0.00000908,-0.00000538,0.00000360,-0.000
 00359,-0.00000109,-0.00000478,-0.00000215,0.00000205,0.00000056,-0.000
 00210,0.00000090,-0.00000152,0.00000029,-0.00000180,0.00000296,0.00000
 007,0.00000095,0.00000019,0.00000117,0.00000023,0.00000136,0.00000036,
 -0.00000162,-0.00000051,0.00000041,0.00000084,-0.00000017,0.00000012,-
 0.00000027,0.00000032,-0.00000025,-0.00000006,-0.00000061,-0.00000112,
 0.00000013,0.00000018,-0.00000071,0.00000101,-0.00000076,-0.00000039,0
 .00000051,0.00000036,-0.00000048,0.00000043,-0.00000043,-0.00000002,-0
 .00000014,0.00000026,0.00000006,0.00000068,0.00000004,0.00000995,0.000
 01812,-0.00000070,0.00000404,-0.00000509,-0.00000106,0.00000274,0.0000
 0422,0.00001384,0.00000347,-0.00000400,-0.00000166,0.00001029,-0.00000
 029,-0.00000537,0.00000240,-0.00000097,0.00000414,0.00000603,-0.000021
 01,-0.00002773,0.00002189,-0.00000033,0.00000927,-0.00001730,0.0000127
 6,-0.00002117,0.00013144,-0.00008197,-0.00000816,0.00001762,-0.0000026
 0,-0.00002514,0.00000291,-0.00000445,0.00000649,-0.00000252,0.00000303
 ,0.00000325,0.00000938,-0.00000075,0.00001143,-0.00069523,-0.00053126,
 0.00060012,0.00001316,0.00013260,-0.00005863,-0.00006758,0.00017556,0.
 00018907,0.00036855,0.00030660,0.00045988,-0.00030496,0.00119968,0.001
 05485,0.00042011,0.00003038,0.00004084,0.00001850,-0.00019604,-0.00001
 442,-0.00010739,-0.00011197,0.00030160,0.12482497,0.03563385,-0.207139
 68,-0.13794880,-0.04002107,0.22325794,-0.00001665,0.00002516,-0.000002
 64,0.00002868,-0.00001505,0.00000444,0.00000436,0.00002621,-0.00000028
 ,-0.00003121,-0.00001411,-0.00000148,0.00002561,-0.00002414,0.00000276
 ,-0.00003048,0.00000780,-0.00000135,0.00005322,0.00010512,-0.00002079,
 0.00000106,0.00000032,0.00000006,0.00000002,-0.00000205,-0.00000029,-0
 .00000069,-0.00000100,-0.00000002,0.00001435,-0.00004523,0.00000737,-0
 .00008866,0.00002835,-0.00008274,0.00004796,-0.00010549,-0.00001239,0.
 00005354,-0.00003946,0.00009674,-0.00016835,0.00031809,0.00018959,-0.0
 0017238,0.00003524,0.00025525,0.00008295,0.00005440,-0.00000945,-0.000
 01607,0.00002336,0.00000566,-0.00112343,0.00155162,0.00069834,-0.00507
 454,-0.00142926,-0.00646750,-0.00000409,-0.00000617,0.00004128,0.00009
 245,-0.00007336,0.00002429,-0.00003037,-0.00005069,0.00000175,0.000030
 95,-0.00002017,0.00000240,0.00000002,-0.00000038,-0.00000015,-0.000014
 54,0.00002504,-0.00000173,0.00000820,0.00000010,0.00000057,-0.00000226
 ,-0.00000054,-0.00000370,-0.00000130,0.00000172,0.00000097,-0.00000072
 ,-0.00000024,-0.00000033,0.00000059,-0.00000009,0.00000157,-0.00000005
 ,-0.00000041,0.00000064,0.00000054,0.00000026,-0.00000017,0.00000062,-
 0.00000009,-0.00000096,0.00000025,-0.00000048,0.00000003,-0.00000010,0
 .00000036,0.00000051,0.00000010,0.00000038,-0.00000055,-0.00000134,-0.
 00000014,0.00000080,0.00000017,-0.00000020,-0.00000052,-0.00000086,-0.
 00000016,-0.00000002,0.00000017,-0.00000031,0.00000024,-0.00000060,0.0
 0000004,0.00000012,0.00000010,-0.00000037,0.00000030,0.00000009,0.0000
 1274,-0.00000047,0.00000354,0.00000139,-0.00000261,-0.00000450,-0.0000
 0037,0.00000743,-0.00000190,-0.00000194,-0.00000014,0.00000382,0.00000
 155,-0.00000176,-0.00000064,0.00000004,-0.00000147,0.00001148,0.000011
 71,0.00001946,0.00001140,-0.00000355,-0.00000556,0.00033388,0.00012763
 ,0.00005733,0.00000298,-0.00001503,0.00000322,0.00001395,0.00000591,-0
 .00000767,-0.00000139,-0.00000160,-0.00000089,-0.00000294,0.00000385,0
 .00000218,0.00000578,0.00000059,0.00000756,-0.00013474,-0.00230960,0.0
 0083935,0.00030926,0.00002175,0.00032394,0.00009425,-0.00040234,-0.000
 78539,0.00009740,0.00006399,-0.00027092,0.00016319,0.00031271,-0.00073
 651,0.00009311,0.00008082,0.00016190,-0.00002738,0.00001884,0.00001136
 ,-0.00019094,-0.00018447,0.00028314,-0.10620955,-0.03380947,-0.1043892
 0,0.00995133,0.00624434,0.01677271,0.11320265,0.00002146,-0.00001933,0
 .00000311,-0.00002876,0.00003005,-0.00000302,-0.00000411,-0.00004379,0
 .00000304,0.00004846,0.00002121,0.00000196,-0.00003960,0.00003723,-0.0
 0000375,0.00003938,-0.00001711,0.00000247,-0.00005128,-0.00016973,-0.0
 0002511,-0.00000076,-0.00000102,-0.00000018,0.00000017,0.00000181,-0.0
 0000031,0.00000059,0.00000104,-0.00000021,-0.00002280,0.00002036,0.000
 00236,0.00003550,0.00013982,0.00000512,-0.00009630,0.00024456,-0.00002
 779,-0.00002658,-0.00019786,0.00023921,-0.00043358,0.00155191,-0.00020
 301,-0.00026997,0.00049465,0.00031400,0.00025210,-0.00005140,0.0000660
 1,0.00001436,0.00009163,-0.00005495,0.00142918,-0.00094700,-0.00067854
 ,-0.01482606,-0.00718001,-0.02738115,0.00000437,-0.00000540,-0.0000218
 9,0.00002280,-0.00001141,0.00000383,0.00004820,0.00004844,0.00000794,-
 0.00004644,0.00002854,-0.00000502,0.00000001,0.00000041,-0.00000057,0.
 00001859,-0.00003578,0.00000846,-0.00000996,0.00000687,-0.00000658,0.0
 0000343,-0.00000122,0.00000311,0.00000217,-0.00000255,-0.00000149,0.00
 000295,-0.00000148,0.00000032,-0.00000046,0.00000173,-0.00000246,-0.00
 000022,-0.00000055,0.00000037,-0.00000036,0.00000034,-0.00000018,-0.00
 000020,0.00000248,0.00000039,-0.00000045,-0.00000103,0.00000036,-0.000
 00039,0.00000091,0.00000096,0.00000013,-0.00000051,-0.00000020,0.00000
 074,-0.00000043,0.00000044,0.00000058,-0.00000084,0.,0.00000070,-0.000
 00021,0.00000016,0.00000071,-0.00000095,0.00000030,0.00000023,0.000000
 26,0.00000008,-0.00000006,-0.00000040,0.00000030,0.00000900,0.00000506
 ,-0.00000224,-0.00000417,0.00000536,-0.00000447,0.00000744,0.00000032,
 -0.00000678,-0.00000288,0.00000211,0.00000173,-0.00000226,-0.00000034,
 0.00000075,0.00000081,0.00000016,0.00000219,0.00002998,-0.00007030,-0.
 00000815,-0.00001349,0.00000316,0.00000291,0.00013255,0.00017154,-0.00
 004632,0.00001267,-0.00000946,-0.00000564,-0.00000396,-0.00000679,0.00
 000360,-0.00000184,0.00000074,-0.00000171,0.00000094,0.00000158,0.0000
 0216,-0.00000472,0.00000033,-0.00000312,-0.00128708,-0.00656271,0.0016
 1972,-0.00015147,0.00024361,0.00017921,-0.00125061,-0.00066612,-0.0018
 9267,0.00026722,0.00006719,0.00011731,0.00078232,0.00125502,-0.0012502
 5,0.00037996,0.00005738,0.00004916,-0.00007600,-0.00004684,0.00011113,
 -0.00019385,-0.00000247,0.00059375,-0.03305583,-0.06852793,-0.06040394
 ,0.00357940,0.00105297,0.00480563,0.03743191,0.07408415,0.00001518,-0.
 00000940,0.00000148,-0.00001303,0.00001686,-0.00000461,-0.00000260,-0.
 00002818,0.00000221,0.00003084,0.00001353,0.00000158,-0.00002515,0.000
 02427,-0.00000236,0.00002599,-0.00001154,0.00000189,-0.00000865,-0.000
 10546,0.00000446,-0.00000037,-0.00000071,-0.00000040,0.00000015,0.0000
 0093,-0.00000017,0.00000027,0.00000069,-0.00000011,0.00000206,0.000013
 76,0.00000451,-0.00018063,-0.00007658,-0.00009598,0.00002122,0.0000913
 8,-0.00001302,0.00026186,-0.00017424,0.00001458,-0.00038450,0.00007599
 ,0.00010508,-0.00119029,-0.00029931,0.00041828,0.00029700,0.00039176,0
 .00002755,0.00002513,0.00005561,0.00001497,0.00059359,0.00030716,-0.00
 028274,0.00138312,0.00033920,0.00034824,0.00002988,0.00000674,0.000059
 06,0.00003522,0.00009170,0.00001241,0.00003217,0.00003644,0.00000041,-
 0.00003152,0.00001992,-0.00000376,0.00000005,0.00000031,-0.00000046,0.
 00001266,-0.00002425,0.00000597,-0.00000677,0.00000545,-0.00000479,0.0
 0000264,-0.00000037,0.00000248,0.00000159,-0.00000157,-0.00000104,0.00
 000188,-0.00000140,0.00000063,-0.00000023,0.00000160,-0.00000212,-0.00
 000014,-0.00000081,0.00000027,-0.00000039,0.00000042,-0.00000034,-0.00
 000010,0.00000207,0.00000012,-0.00000025,-0.00000100,0.00000033,-0.000
 00036,0.00000069,0.00000066,0.00000018,-0.00000015,-0.00000012,0.00000
 043,-0.00000030,0.00000052,0.00000059,-0.00000090,0.00000013,0.0000003
 6,-0.00000026,-0.00000002,0.00000059,-0.00000088,0.00000037,-0.0000000
 2,0.00000024,-0.00000002,-0.00000001,-0.00000063,0.00000029,-0.0000127
 0,-0.00001982,-0.00000167,-0.00000307,0.00000452,-0.00000284,-0.000014
 24,-0.00000119,-0.00002880,-0.00000518,0.00000491,0.00000450,-0.000012
 39,0.00000175,0.00000882,0.00000167,-0.00000233,0.00000347,0.00001662,
 0.00001326,-0.00002617,-0.00002279,-0.00000024,0.00000217,0.00018968,-
 0.00005945,0.00034007,0.00000285,0.00000727,-0.00001047,-0.00000449,-0
 .00000143,0.00001281,-0.00000213,0.00000366,-0.00000371,-0.00000442,0.
 00000224,0.00000444,-0.00000849,0.,-0.00000746,0.00019069,-0.00073934,
 0.00123685,0.00007441,0.00017641,0.00000029,-0.00026823,-0.00003312,0.
 00003601,0.00003768,0.00016453,0.00023865,0.00051695,0.00044763,0.0006
 3677,-0.00000750,-0.00014914,0.00024083,0.00002649,-0.00005672,-0.0000
 2446,-0.00034512,-0.00012171,0.00013901,-0.10360939,-0.06215991,-0.237
 37032,-0.01230173,-0.00638304,-0.01951189,0.11507186,0.06831434,0.2555
 5837,0.00003946,-0.00004700,0.00000526,-0.00005266,0.00003344,-0.00000
 662,-0.00000896,-0.00006504,0.00000249,0.00007319,0.00003234,0.0000036
 1,-0.00005939,0.00005608,-0.00000646,0.00006610,-0.00002187,0.00000433
 ,-0.00006650,-0.00026157,0.00001400,-0.00000177,-0.00000130,-0.0000001
 5,0.,0.00000376,-0.00000005,0.00000134,0.00000207,0.,-0.00001703,0.000
 06497,-0.00000520,-0.00006063,-0.00011837,0.00000085,-0.00003557,0.000
 18285,-0.00000536,0.00045421,-0.00052650,0.00004508,-0.00005156,-0.001
 79465,0.00006829,-0.00067816,-0.00037364,-0.00008698,0.00026168,0.0002
 6824,0.00000550,0.00007467,0.00004486,0.00000114,0.00036812,0.00070630
 ,0.00003850,0.00583353,-0.00569291,0.00089377,0.00004567,0.00003250,-0
 .00000062,-0.00008520,0.00017715,-0.00001379,0.00007245,0.00010396,0.0
 0000063,-0.00007161,0.00004463,-0.00000697,-0.00000007,0.00000089,-0.0
 0000040,0.00003192,-0.00005544,0.00000916,-0.00001847,0.00000495,-0.00
 000624,0.00000495,-0.00000090,0.00000649,0.00000299,-0.00000414,-0.000
 00243,0.00000251,-0.00000117,0.00000051,-0.00000153,0.00000204,-0.0000
 0393,0.00000004,0.00000003,-0.00000047,-0.00000061,0.00000008,0.000000
 47,-0.00000131,0.00000277,0.00000116,-0.00000048,-0.00000025,0.0000003
 7,-0.00000027,0.00000035,0.00000020,-0.00000009,-0.00000114,0.00000037
 ,0.00000221,-0.00000028,-0.00000059,0.00000024,-0.00000089,0.00000060,
 0.00000183,0.00000023,0.00000037,0.00000034,-0.00000087,0.00000004,0.0
 0000143,0.00000026,-0.00000008,-0.00000019,0.00000004,0.,-0.00001409,-
 0.00003750,-0.00000021,-0.00000812,0.00000035,-0.00000083,-0.00001339,
 -0.00001565,-0.00002452,0.00000204,0.00000435,-0.00000017,-0.00001966,
 -0.00000008,0.00001124,0.00000339,-0.00000173,0.00000178,-0.00000037,0
 .00000005,0.00000016,-0.00002600,-0.00000249,-0.00000309,0.00000797,0.
 00000962,0.00002066,0.00001338,0.00000697,-0.00001957,-0.00002062,-0.0
 0001319,0.00002268,0.00000261,0.00000402,-0.00000029,0.00000349,-0.000
 00213,-0.00000083,-0.00001661,-0.00000079,-0.00001655,0.00050198,-0.00
 057914,0.00006581,0.00017640,0.00030528,0.00036228,0.00029098,0.000035
 38,0.00017145,-0.00001603,0.00000992,-0.00005538,0.00046201,-0.0005336
 5,0.00009003,0.00032074,0.00004033,-0.00010088,0.00043126,-0.00005978,
 -0.00026396,-0.00003734,0.00004431,0.00004802,-0.22823952,0.12421951,-
 0.02176258,-0.01482011,0.00981164,-0.00295834,-0.01139136,0.00732550,-
 0.00043665,0.24628017,-0.00007409,0.00009879,-0.00000979,0.00013104,-0
 .00006537,0.00001431,0.00001084,0.00011020,-0.00000491,-0.00013029,-0.
 00006135,-0.00000613,0.00010670,-0.00010412,0.00001162,-0.00013026,0.0
 0003543,-0.00000800,0.00035161,0.00042955,-0.00000101,0.00000397,0.000
 00153,0.00000038,-0.00000071,-0.00000789,0.00000015,-0.00000231,-0.000
 00434,0.,0.00001943,-0.00021531,0.00001294,-0.00037248,0.00025514,-0.0
 0004768,-0.00014594,-0.00080557,0.00001972,0.00198567,-0.00037328,0.00
 026378,-0.00400267,-0.00514380,-0.00005285,-0.00116321,-0.00032325,-0.
 00009505,0.00024532,0.00004011,0.00002499,-0.00012187,0.00004332,-0.00
 001361,-0.00006228,0.00039460,-0.00004321,0.02646750,-0.01933554,0.003
 36047,-0.00002439,-0.00007760,0.00000317,0.00038249,-0.00027394,0.0000
 4994,-0.00014215,-0.00021947,0.00000071,0.00014162,-0.00009366,0.00001
 403,-0.00000008,-0.00000174,0.00000074,-0.00006606,0.00011242,-0.00001
 860,0.00003637,-0.00001335,0.00001316,-0.00001081,0.00000105,-0.000013
 48,-0.00000671,0.00000820,0.00000460,-0.00000577,0.00000246,-0.0000017
 2,0.00000239,-0.00000454,0.00000850,0.00000009,0.00000063,0.00000069,0
 .00000174,-0.00000032,0.00000002,0.00000204,-0.00000579,-0.00000226,0.
 00000112,0.00000115,-0.00000070,0.00000062,-0.00000093,-0.00000046,-0.
 00000013,0.00000183,-0.00000087,-0.00000410,0.00000069,0.00000060,-0.0
 0000087,0.00000172,-0.00000123,-0.00000312,0.00000014,-0.00000033,-0.0
 0000101,0.00000159,-0.00000031,-0.00000185,-0.00000057,0.00000026,0.00
 000031,0.00000046,-0.00000007,0.00000229,0.00005959,-0.00000093,0.0000
 2155,-0.00000306,0.00000197,0.00002719,0.00003200,0.00002938,-0.000015
 20,-0.00000295,0.00000743,0.00002549,0.00000075,-0.00001516,-0.0000035
 4,0.00000222,-0.00000424,0.00004775,-0.00000749,0.00000594,0.00001211,
 0.00001268,0.00000079,0.00000151,0.00000062,-0.00000338,-0.00000061,0.
 00000092,0.00000363,0.00003395,0.00002770,-0.00002524,-0.00001247,-0.0
 0000354,-0.00001041,-0.00000412,0.00000333,0.00000359,0.00002102,0.000
 00213,0.00002175,0.00149118,0.00084592,0.00086111,-0.00048652,0.000277
 22,-0.00035637,-0.00023893,0.00035415,0.00023772,-0.00009885,-0.000016
 42,-0.00008677,0.00139750,0.00101085,-0.00068976,-0.00017080,0.0003146
 5,-0.00033370,-0.00072001,0.00025367,0.00042597,-0.00011443,-0.0000135
 3,0.00007757,0.12206291,-0.12681695,0.01495422,-0.00534334,0.00298651,
 -0.00133870,-0.00798536,0.00490805,-0.00017186,-0.13336794,0.14136172,
 0.00000899,-0.00001122,0.00000137,-0.00001417,0.00000809,0.00000484,-0
 .00000187,-0.00001391,0.00000371,0.00001627,0.00000729,-0.00000083,-0.
 00001318,0.00001266,-0.00000115,0.00001541,-0.00000463,0.00000092,-0.0
 0002262,-0.00005882,-0.00006567,-0.00000047,-0.00000020,0.00000037,0.0
 0000009,0.00000086,-0.00000065,0.00000026,0.00000050,0.00000025,-0.000
 00358,0.00002080,0.00001051,0.00001003,-0.00003637,-0.00004374,0.00001
 796,0.00006704,-0.00008402,-0.00011254,0.00000315,0.00032855,0.0001450
 9,0.00019188,0.00051559,-0.00007861,0.00000674,0.00033389,0.00001336,0
 .00005636,0.00007341,0.00000868,0.00000638,0.00005506,0.00009237,0.000
 06469,-0.00029429,-0.00099523,0.00066046,-0.00178498,0.00000334,0.0000
 1116,0.00004621,-0.00003214,0.00004087,-0.00000558,0.00001740,0.000025
 19,-0.00000418,-0.00001673,0.00001080,-0.00000185,0.,0.00000021,0.0000
 0001,0.00000774,-0.00001315,0.00000206,-0.00000446,0.00000116,-0.00000
 118,0.00000142,0.00000033,0.00000206,0.00000078,-0.00000087,-0.0000003
 3,0.00000060,-0.00000016,0.00000054,-0.00000034,0.00000069,-0.00000115
 ,0.00000004,-0.00000016,-0.00000025,-0.00000050,0.00000005,-0.00000016
 ,-0.00000031,0.00000029,0.00000040,-0.00000016,-0.00000004,0.,0.000000
 05,-0.00000011,-0.00000025,0.00000007,-0.00000011,0.00000037,0.0000006
 6,0.00000005,-0.00000036,0.00000015,-0.00000027,0.00000048,0.00000032,
 -0.00000010,-0.00000009,0.00000005,0.00000002,0.00000010,0.00000025,0.
 00000004,-0.00000007,-0.00000006,-0.00000009,-0.00000015,-0.00000207,-
 0.00000879,-0.00000325,-0.00000237,0.00000031,0.00000016,-0.00001174,-
 0.00000533,-0.00001129,0.00000099,0.00000103,0.00000021,-0.00000582,0.
 00000089,0.00000466,0.00000075,-0.00000033,0.00000191,-0.00000065,-0.0
 0000021,-0.00001884,-0.00000503,-0.00000087,0.00000512,0.00000722,0.00
 000405,0.00000947,-0.00000457,-0.00000152,0.00000258,0.00000463,-0.000
 00293,0.00000080,0.00000113,0.00000056,0.00000117,0.00000021,-0.000000
 22,0.00000105,-0.00000248,-0.00000077,-0.00000083,0.00059980,-0.000754
 29,0.00014188,0.00002008,0.00012050,0.00018493,0.00008119,0.00009346,-
 0.00007303,0.00002288,-0.00002268,-0.00001238,-0.00053089,0.00044761,-
 0.00004512,0.00000104,-0.00013674,-0.00006677,0.00019435,0.00020192,0.
 00001928,-0.00001761,-0.00002185,-0.00003328,-0.02179514,0.01513635,-0
 .04924039,0.02057421,-0.01460438,0.00322583,-0.02208746,0.01557378,-0.
 00209167,0.02389291,-0.01707708,0.04890804\\0.00000277,0.00000070,0.00
 000390,0.00000277,0.00000221,0.00000631,0.00000382,0.00000273,0.000008
 44,0.00000491,0.00000200,0.00000786,0.00000510,0.00000042,0.00000524,0
 .00000383,-0.00000012,0.00000315,0.00000105,0.00000145,0.00000364,0.00
 000385,0.00000390,0.00001055,0.00000583,0.00000228,0.00000949,0.000005
 80,-0.00000024,0.00000480,0.00000141,0.00000244,0.00000623,-0.00000096
 ,0.00000312,0.00000456,-0.00000051,0.00000182,0.00000285,-0.00000088,0
 .00000053,-0.00000001,-0.00000209,0.00000073,-0.00000068,-0.00000308,0
 .00000216,0.00000137,-0.00000232,0.00000324,0.00000388,-0.00000045,-0.
 00000059,-0.00000135,-0.00000388,0.00000202,0.00000055,-0.00000281,-0.
 00000075,-0.00000382,-0.00000318,0.00000475,0.00000595,-0.00000021,0.0
 0000457,0.00000763,0.00000159,0.00000018,0.00000173,0.00000396,-0.0000
 0173,0.00000043,0.00000473,-0.00000224,0.00000001,0.00000287,-0.000002
 20,-0.00000171,0.00000264,-0.00000374,-0.00000448,0.00000010,-0.000003
 04,-0.00000542,0.00000512,-0.00000512,-0.00000504,0.00000242,-0.000004
 16,-0.00000556,-0.00000024,-0.00000448,-0.00000834,0.00000037,-0.00000
 238,-0.00000418,-0.00000182,-0.00000192,-0.00000511,0.00000487,-0.0000
 0665,-0.00000791,0.00000561,-0.00000484,-0.00000380,0.00000694,-0.0000
 0570,-0.00000434,0.00000240,-0.00000607,-0.00000894,-0.00000200,-0.000
 00399,-0.00000905,-0.00000061,-0.00000499,-0.00000959,0.00000675,-0.00
 000779,-0.00000824,0.00000475,-0.00000729,-0.00000910,0.00000220,-0.00
 000710,-0.00001105,0.00000277,-0.00000564,-0.00000782,0.00000109,0.000
 00368,0.00000749,0.00000201,-0.00000174,-0.00000119,-0.00000081,0.0000
 0466,0.00000796,0.00000027,0.00000478,0.00000909,-0.00000125,0.0000057
 6,0.00000945,0.00000084,0.00000347,0.00000710,-0.00000452,0.00000486,0
 .00000455,-0.00000511,0.00000579,0.00000612,-0.00000651,0.00000473,0.0
 0000294,-0.00000307,0.00000347,0.00000355,-0.00000541,0.00000664,0.000
 00732,-0.00000448,0.00000662,0.00000824,-0.00000717,0.00000664,0.00000
 579,-0.00000580,0.00000769,0.00000880,-0.00000005,-0.00000265,-0.00000
 475,-0.00000038,-0.00000355,-0.00000693,0.00000088,-0.00000293,-0.0000
 0444,0.00000135,-0.00000272,-0.00000368,-0.00000469,-0.00000062,-0.000
 00535,-0.00000396,-0.00000085,-0.00000508,-0.00000510,-0.00000148,-0.0
 0000745,-0.00000659,0.00000047,-0.00000464,-0.00000419,-0.00000029,-0.
 00000435,-0.00000287,-0.00000044,-0.00000336,-0.00000609,0.00000089,-0
 .00000373,-0.00000456,-0.00000133,-0.00000648\\\@


 SOME PEOPLE TRY TO PULL THE WOOL OVER YOUR EYES
 USING THE WRONG YARN.
 Job cpu time:       0 days  7 hours 29 minutes  8.3 seconds.
 Elapsed time:       0 days  0 hours 28 minutes 12.8 seconds.
 File lengths (MBytes):  RWF=   3220 Int=      0 D2E=      0 Chk=     72 Scr=      8
 Normal termination of Gaussian 16 at Fri Dec 21 16:38:21 2018.
