 Entering Gaussian System, Link 0=g16
 Initial command:
 /gpfs/apps/hpc/Apps/Restricted/Gaussian/Rev_A.03/g16/l1.exe "/gpfs/scratch60/fas/hammes_schiffer/jg2487/c13n12/Gau-12465.inp" -scrdir="/gpfs/scratch60/fas/hammes_schiffer/jg2487/c13n12/"
 Entering Link 1 = /gpfs/apps/hpc/Apps/Restricted/Gaussian/Rev_A.03/g16/l1.exe PID=     12466.
  
 Copyright (c) 1988,1990,1992,1993,1995,1998,2003,2009,2016,
            Gaussian, Inc.  All Rights Reserved.
  
 This is part of the Gaussian(R) 16 program.  It is based on
 the Gaussian(R) 09 system (copyright 2009, Gaussian, Inc.),
 the Gaussian(R) 03 system (copyright 2003, Gaussian, Inc.),
 the Gaussian(R) 98 system (copyright 1998, Gaussian, Inc.),
 the Gaussian(R) 94 system (copyright 1995, Gaussian, Inc.),
 the Gaussian 92(TM) system (copyright 1992, Gaussian, Inc.),
 the Gaussian 90(TM) system (copyright 1990, Gaussian, Inc.),
 the Gaussian 88(TM) system (copyright 1988, Gaussian, Inc.),
 the Gaussian 86(TM) system (copyright 1986, Carnegie Mellon
 University), and the Gaussian 82(TM) system (copyright 1983,
 Carnegie Mellon University). Gaussian is a federally registered
 trademark of Gaussian, Inc.
  
 This software contains proprietary and confidential information,
 including trade secrets, belonging to Gaussian, Inc.
  
 This software is provided under written license and may be
 used, copied, transmitted, or stored only in accord with that
 written license.
  
 The following legend is applicable only to US Government
 contracts under FAR:
  
                    RESTRICTED RIGHTS LEGEND
  
 Use, reproduction and disclosure by the US Government is
 subject to restrictions as set forth in subparagraphs (a)
 and (c) of the Commercial Computer Software - Restricted
 Rights clause in FAR 52.227-19.
  
 Gaussian, Inc.
 340 Quinnipiac St., Bldg. 40, Wallingford CT 06492
  
  
 ---------------------------------------------------------------
 Warning -- This program may not be used in any manner that
 competes with the business of Gaussian, Inc. or will provide
 assistance to any competitor of Gaussian, Inc.  The licensee
 of this program is prohibited from giving any competitor of
 Gaussian, Inc. access to this program.  By using this program,
 the user acknowledges that Gaussian, Inc. is engaged in the
 business of creating and licensing software in the field of
 computational chemistry and represents and warrants to the
 licensee that it is not a competitor of Gaussian, Inc. and that
 it will not use this program in any manner prohibited above.
 ---------------------------------------------------------------
  

 Cite this work as:
 Gaussian 16, Revision A.03,
 M. J. Frisch, G. W. Trucks, H. B. Schlegel, G. E. Scuseria, 
 M. A. Robb, J. R. Cheeseman, G. Scalmani, V. Barone, 
 G. A. Petersson, H. Nakatsuji, X. Li, M. Caricato, A. V. Marenich, 
 J. Bloino, B. G. Janesko, R. Gomperts, B. Mennucci, H. P. Hratchian, 
 J. V. Ortiz, A. F. Izmaylov, J. L. Sonnenberg, D. Williams-Young, 
 F. Ding, F. Lipparini, F. Egidi, J. Goings, B. Peng, A. Petrone, 
 T. Henderson, D. Ranasinghe, V. G. Zakrzewski, J. Gao, N. Rega, 
 G. Zheng, W. Liang, M. Hada, M. Ehara, K. Toyota, R. Fukuda, 
 J. Hasegawa, M. Ishida, T. Nakajima, Y. Honda, O. Kitao, H. Nakai, 
 T. Vreven, K. Throssell, J. A. Montgomery, Jr., J. E. Peralta, 
 F. Ogliaro, M. J. Bearpark, J. J. Heyd, E. N. Brothers, K. N. Kudin, 
 V. N. Staroverov, T. A. Keith, R. Kobayashi, J. Normand, 
 K. Raghavachari, A. P. Rendell, J. C. Burant, S. S. Iyengar, 
 J. Tomasi, M. Cossi, J. M. Millam, M. Klene, C. Adamo, R. Cammi, 
 J. W. Ochterski, R. L. Martin, K. Morokuma, O. Farkas, 
 J. B. Foresman, and D. J. Fox, Gaussian, Inc., Wallingford CT, 2016.
 
 ******************************************
 Gaussian 16:  ES64L-G16RevA.03 25-Dec-2016
                20-Dec-2018 
 ******************************************
 %chk=cyclohexyl-monoBIP-2PT.chk
 %mem=10GB
 %nprocshared=16
 Will use up to   16 processors via shared memory.
 ----------------------------------------------------------------------
 #p opt=tight freq=internalmodes b3lyp/6-31g(d,p) scrf=(cpcm,solvent=di
 chloromethane,read) nosymm empiricaldispersion=gd3bj int=grid=ultrafin
 e
 ----------------------------------------------------------------------
 1/7=10,18=20,19=15,26=6,38=1,40=2/1,3;
 2/9=110,12=2,15=1,17=6,18=5,40=1/2;
 3/5=1,6=6,7=101,11=2,25=1,30=1,70=2103,71=1,72=9,74=-5,75=-5,124=41/1,2,3;
 4//1;
 5/5=2,38=5,53=9/2;
 6/7=2,8=2,9=2,10=2,28=1/1;
 7/30=1/1,2,3,16;
 1/7=10,18=20,19=15,26=6/3(2);
 2/9=110,15=1/2;
 99//99;
 2/9=110,15=1/2;
 3/5=1,6=6,7=101,11=2,25=1,30=1,70=2105,71=1,72=9,74=-5,75=-5,124=41/1,2,3;
 4/5=5,16=3,69=1/1;
 5/5=2,38=5,53=9/2;
 7/30=1/1,2,3,16;
 1/7=10,18=20,19=15,26=6/3(-5);
 2/9=110,15=1/2;
 6/7=2,8=2,9=2,10=2,19=2,28=1/1;
 99/9=1/99;
 Leave Link    1 at Thu Dec 20 17:37:42 2018, MaxMem=  1342177280 cpu:               7.6 elap:               0.5
 (Enter /gpfs/apps/hpc/Apps/Restricted/Gaussian/Rev_A.03/g16/l101.exe)
 ----------------------------------------------------------------------
 cyclohexylimine monoBIP neutral, with both protons transferred optimiz
 ation
 ----------------------------------------------------------------------
 Symbolic Z-matrix:
 Charge =  0 Multiplicity = 1
 C                    -0.52249   2.72092   0.33407 
 C                    -1.92037   2.94681   0.27176 
 C                    -2.46318   4.22888   0.21239 
 C                    -1.5704    5.30478   0.22296 
 C                    -0.18611   5.1094    0.28415 
 C                     0.37071   3.81949   0.33404 
 C                    -1.45275   0.78026   0.35285 
 H                    -3.5328    4.38713   0.16009 
 H                    -1.96041   6.31388   0.18208 
 H                     0.47728   5.96643   0.29019 
 N                    -2.47101   1.68795   0.28383 
 C                    -3.03159  -1.19658   0.29644 
 C                    -1.67158  -0.65247   0.39144 
 C                    -0.59527  -1.51004   0.52076 
 C                    -0.76828  -2.90789   0.57347 
 C                    -2.07158  -3.44604   0.47261 
 C                    -3.1862   -2.64923   0.33507 
 H                     0.40258  -1.09378   0.59202 
 H                    -2.19169  -4.52362   0.51264 
 C                     0.42057  -3.80108   0.75021 
 C                    -4.56946  -3.20657   0.23426 
 O                    -4.04375  -0.45717   0.18862 
 N                    -0.25165   1.38069   0.38343 
 C                     1.78916   3.64288   0.36613 
 H                     2.42742   4.51992   0.36827 
 N                     2.35762   2.47525   0.39038 
 C                     3.81496   2.23979   0.40237 
 C                     4.44186   2.62113  -0.94626 
 C                     4.49321   2.9728    1.56535 
 H                     3.92241   1.16341   0.55083 
 C                     5.94769   2.33168  -0.92899 
 H                     4.26968   3.68929  -1.12204 
 H                     3.94744   2.07107  -1.75099 
 C                     5.99683   2.6741    1.57442 
 H                     4.34164   4.05163   1.4472 
 H                     4.02544   2.67642   2.50739 
 C                     6.64425   3.04413   0.23518 
 H                     6.39102   2.6285   -1.88348 
 H                     6.09972   1.24989  -0.83273 
 H                     6.46974   3.21879   2.3961 
 H                     6.15056   1.60592   1.76974 
 H                     7.70846   2.79267   0.24793 
 H                     6.57367   4.12915   0.08952 
 H                    -3.44181   1.38842   0.24228 
 H                     1.72612   1.6651    0.38123 
 C                    -5.47247  -2.61753   1.3339 
 H                    -6.01075  -1.77968   0.94256 
 H                    -6.16478  -3.36342   1.66443 
 H                    -4.86928  -2.30023   2.15876 
 C                    -4.55451  -4.74103   0.36401 
 H                    -5.55439  -5.11491   0.2909 
 H                    -3.959    -5.1595   -0.42031 
 H                    -4.13974  -5.01482   1.31159 
 C                    -5.2168   -2.82686  -1.1105 
 H                    -5.72404  -1.89008  -1.01025 
 H                    -4.45824  -2.74324  -1.86049 
 H                    -5.91789  -3.58341  -1.39509 
 C                     1.13364  -3.48439   2.07794 
 H                     1.62973  -4.36275   2.4347 
 H                     1.85267  -2.70785   1.92024 
 H                     0.41395  -3.16255   2.80138 
 C                     1.45055  -3.5703   -0.37117 
 H                     2.04882  -2.71507  -0.13546 
 H                     2.07913  -4.43154  -0.46088 
 H                     0.93932  -3.40394  -1.2963 
 C                     0.01572  -5.28691   0.75213 
 H                    -0.65506  -5.47276   1.56479 
 H                    -0.46836  -5.52588  -0.1717 
 H                     0.88929  -5.89446   0.86464 
 
 ITRead=  0  0  0  0  0  0  0  0  0  0  0  0  0  0  0  0  0  0  0  0
 ITRead=  0  0  0  0  0  0  0  0  0  0  0  0  0  0  0  0  0  0  0  0
 ITRead=  0  0  0  0  0  0  0  0  0  0  0  0  0  0  0  0  0  0  0  0
 ITRead=  0  0  0  0  0  0  0  0  0
 MicOpt= -1 -1 -1 -1 -1 -1 -1 -1 -1 -1 -1 -1 -1 -1 -1 -1 -1 -1 -1 -1
 MicOpt= -1 -1 -1 -1 -1 -1 -1 -1 -1 -1 -1 -1 -1 -1 -1 -1 -1 -1 -1 -1
 MicOpt= -1 -1 -1 -1 -1 -1 -1 -1 -1 -1 -1 -1 -1 -1 -1 -1 -1 -1 -1 -1
 MicOpt= -1 -1 -1 -1 -1 -1 -1 -1 -1
 NAtoms=     69 NQM=       69 NQMF=       0 NMMI=      0 NMMIF=      0
                NMic=       0 NMicF=      0.
                    Isotopes and Nuclear Properties:
 (Nuclear quadrupole moments (NQMom) in fm**2, nuclear magnetic moments (NMagM)
  in nuclear magnetons)

  Atom         1           2           3           4           5           6           7           8           9          10
 IAtWgt=          12          12          12          12          12          12          12           1           1           1
 AtmWgt=  12.0000000  12.0000000  12.0000000  12.0000000  12.0000000  12.0000000  12.0000000   1.0078250   1.0078250   1.0078250
 NucSpn=           0           0           0           0           0           0           0           1           1           1
 AtZEff=  -0.0000000  -0.0000000  -0.0000000  -0.0000000  -0.0000000  -0.0000000  -0.0000000  -0.0000000  -0.0000000  -0.0000000
 NQMom=    0.0000000   0.0000000   0.0000000   0.0000000   0.0000000   0.0000000   0.0000000   0.0000000   0.0000000   0.0000000
 NMagM=    0.0000000   0.0000000   0.0000000   0.0000000   0.0000000   0.0000000   0.0000000   2.7928460   2.7928460   2.7928460
 AtZNuc=   6.0000000   6.0000000   6.0000000   6.0000000   6.0000000   6.0000000   6.0000000   1.0000000   1.0000000   1.0000000

  Atom        11          12          13          14          15          16          17          18          19          20
 IAtWgt=          14          12          12          12          12          12          12           1           1          12
 AtmWgt=  14.0030740  12.0000000  12.0000000  12.0000000  12.0000000  12.0000000  12.0000000   1.0078250   1.0078250  12.0000000
 NucSpn=           2           0           0           0           0           0           0           1           1           0
 AtZEff=  -0.0000000  -0.0000000  -0.0000000  -0.0000000  -0.0000000  -0.0000000  -0.0000000  -0.0000000  -0.0000000  -0.0000000
 NQMom=    2.0440000   0.0000000   0.0000000   0.0000000   0.0000000   0.0000000   0.0000000   0.0000000   0.0000000   0.0000000
 NMagM=    0.4037610   0.0000000   0.0000000   0.0000000   0.0000000   0.0000000   0.0000000   2.7928460   2.7928460   0.0000000
 AtZNuc=   7.0000000   6.0000000   6.0000000   6.0000000   6.0000000   6.0000000   6.0000000   1.0000000   1.0000000   6.0000000

  Atom        21          22          23          24          25          26          27          28          29          30
 IAtWgt=          12          16          14          12           1          14          12          12          12           1
 AtmWgt=  12.0000000  15.9949146  14.0030740  12.0000000   1.0078250  14.0030740  12.0000000  12.0000000  12.0000000   1.0078250
 NucSpn=           0           0           2           0           1           2           0           0           0           1
 AtZEff=  -0.0000000  -0.0000000  -0.0000000  -0.0000000  -0.0000000  -0.0000000  -0.0000000  -0.0000000  -0.0000000  -0.0000000
 NQMom=    0.0000000   0.0000000   2.0440000   0.0000000   0.0000000   2.0440000   0.0000000   0.0000000   0.0000000   0.0000000
 NMagM=    0.0000000   0.0000000   0.4037610   0.0000000   2.7928460   0.4037610   0.0000000   0.0000000   0.0000000   2.7928460
 AtZNuc=   6.0000000   8.0000000   7.0000000   6.0000000   1.0000000   7.0000000   6.0000000   6.0000000   6.0000000   1.0000000

  Atom        31          32          33          34          35          36          37          38          39          40
 IAtWgt=          12           1           1          12           1           1          12           1           1           1
 AtmWgt=  12.0000000   1.0078250   1.0078250  12.0000000   1.0078250   1.0078250  12.0000000   1.0078250   1.0078250   1.0078250
 NucSpn=           0           1           1           0           1           1           0           1           1           1
 AtZEff=  -0.0000000  -0.0000000  -0.0000000  -0.0000000  -0.0000000  -0.0000000  -0.0000000  -0.0000000  -0.0000000  -0.0000000
 NQMom=    0.0000000   0.0000000   0.0000000   0.0000000   0.0000000   0.0000000   0.0000000   0.0000000   0.0000000   0.0000000
 NMagM=    0.0000000   2.7928460   2.7928460   0.0000000   2.7928460   2.7928460   0.0000000   2.7928460   2.7928460   2.7928460
 AtZNuc=   6.0000000   1.0000000   1.0000000   6.0000000   1.0000000   1.0000000   6.0000000   1.0000000   1.0000000   1.0000000

  Atom        41          42          43          44          45          46          47          48          49          50
 IAtWgt=           1           1           1           1           1          12           1           1           1          12
 AtmWgt=   1.0078250   1.0078250   1.0078250   1.0078250   1.0078250  12.0000000   1.0078250   1.0078250   1.0078250  12.0000000
 NucSpn=           1           1           1           1           1           0           1           1           1           0
 AtZEff=  -0.0000000  -0.0000000  -0.0000000  -0.0000000  -0.0000000  -0.0000000  -0.0000000  -0.0000000  -0.0000000  -0.0000000
 NQMom=    0.0000000   0.0000000   0.0000000   0.0000000   0.0000000   0.0000000   0.0000000   0.0000000   0.0000000   0.0000000
 NMagM=    2.7928460   2.7928460   2.7928460   2.7928460   2.7928460   0.0000000   2.7928460   2.7928460   2.7928460   0.0000000
 AtZNuc=   1.0000000   1.0000000   1.0000000   1.0000000   1.0000000   6.0000000   1.0000000   1.0000000   1.0000000   6.0000000

  Atom        51          52          53          54          55          56          57          58          59          60
 IAtWgt=           1           1           1          12           1           1           1          12           1           1
 AtmWgt=   1.0078250   1.0078250   1.0078250  12.0000000   1.0078250   1.0078250   1.0078250  12.0000000   1.0078250   1.0078250
 NucSpn=           1           1           1           0           1           1           1           0           1           1
 AtZEff=  -0.0000000  -0.0000000  -0.0000000  -0.0000000  -0.0000000  -0.0000000  -0.0000000  -0.0000000  -0.0000000  -0.0000000
 NQMom=    0.0000000   0.0000000   0.0000000   0.0000000   0.0000000   0.0000000   0.0000000   0.0000000   0.0000000   0.0000000
 NMagM=    2.7928460   2.7928460   2.7928460   0.0000000   2.7928460   2.7928460   2.7928460   0.0000000   2.7928460   2.7928460
 AtZNuc=   1.0000000   1.0000000   1.0000000   6.0000000   1.0000000   1.0000000   1.0000000   6.0000000   1.0000000   1.0000000

  Atom        61          62          63          64          65          66          67          68          69
 IAtWgt=           1          12           1           1           1          12           1           1           1
 AtmWgt=   1.0078250  12.0000000   1.0078250   1.0078250   1.0078250  12.0000000   1.0078250   1.0078250   1.0078250
 NucSpn=           1           0           1           1           1           0           1           1           1
 AtZEff=  -0.0000000  -0.0000000  -0.0000000  -0.0000000  -0.0000000  -0.0000000  -0.0000000  -0.0000000  -0.0000000
 NQMom=    0.0000000   0.0000000   0.0000000   0.0000000   0.0000000   0.0000000   0.0000000   0.0000000   0.0000000
 NMagM=    2.7928460   0.0000000   2.7928460   2.7928460   2.7928460   0.0000000   2.7928460   2.7928460   2.7928460
 AtZNuc=   1.0000000   6.0000000   1.0000000   1.0000000   1.0000000   6.0000000   1.0000000   1.0000000   1.0000000
 Leave Link  101 at Thu Dec 20 17:37:42 2018, MaxMem=  1342177280 cpu:               4.7 elap:               0.3
 (Enter /gpfs/apps/hpc/Apps/Restricted/Gaussian/Rev_A.03/g16/l103.exe)

 GradGradGradGradGradGradGradGradGradGradGradGradGradGradGradGradGradGrad
 Berny optimization.
 Initialization pass.
                           ----------------------------
                           !    Initial Parameters    !
                           ! (Angstroms and Degrees)  !
 --------------------------                            --------------------------
 ! Name  Definition              Value          Derivative Info.                !
 --------------------------------------------------------------------------------
 ! R1    R(1,2)                  1.4174         estimate D2E/DX2                !
 ! R2    R(1,6)                  1.4159         estimate D2E/DX2                !
 ! R3    R(1,23)                 1.3682         estimate D2E/DX2                !
 ! R4    R(2,3)                  1.3935         estimate D2E/DX2                !
 ! R5    R(2,11)                 1.3741         estimate D2E/DX2                !
 ! R6    R(3,4)                  1.3981         estimate D2E/DX2                !
 ! R7    R(3,8)                  1.0825         estimate D2E/DX2                !
 ! R8    R(4,5)                  1.3993         estimate D2E/DX2                !
 ! R9    R(4,9)                  1.0826         estimate D2E/DX2                !
 ! R10   R(5,6)                  1.4058         estimate D2E/DX2                !
 ! R11   R(5,10)                 1.0838         estimate D2E/DX2                !
 ! R12   R(6,24)                 1.4298         estimate D2E/DX2                !
 ! R13   R(7,11)                 1.3658         estimate D2E/DX2                !
 ! R14   R(7,13)                 1.4499         estimate D2E/DX2                !
 ! R15   R(7,23)                 1.3432         estimate D2E/DX2                !
 ! R16   R(11,44)                1.0168         estimate D2E/DX2                !
 ! R17   R(12,13)                1.4679         estimate D2E/DX2                !
 ! R18   R(12,17)                1.4614         estimate D2E/DX2                !
 ! R19   R(12,22)                1.2581         estimate D2E/DX2                !
 ! R20   R(13,14)                1.3822         estimate D2E/DX2                !
 ! R21   R(14,15)                1.4095         estimate D2E/DX2                !
 ! R22   R(14,18)                1.0835         estimate D2E/DX2                !
 ! R23   R(15,16)                1.4136         estimate D2E/DX2                !
 ! R24   R(15,20)                1.4975         estimate D2E/DX2                !
 ! R25   R(16,17)                1.377          estimate D2E/DX2                !
 ! R26   R(16,19)                1.085          estimate D2E/DX2                !
 ! R27   R(17,21)                1.4947         estimate D2E/DX2                !
 ! R28   R(20,58)                1.54           estimate D2E/DX2                !
 ! R29   R(20,62)                1.54           estimate D2E/DX2                !
 ! R30   R(20,66)                1.54           estimate D2E/DX2                !
 ! R31   R(21,46)                1.54           estimate D2E/DX2                !
 ! R32   R(21,50)                1.54           estimate D2E/DX2                !
 ! R33   R(21,54)                1.54           estimate D2E/DX2                !
 ! R34   R(24,25)                1.0847         estimate D2E/DX2                !
 ! R35   R(24,26)                1.2989         estimate D2E/DX2                !
 ! R36   R(26,27)                1.4763         estimate D2E/DX2                !
 ! R37   R(26,45)                1.0272         estimate D2E/DX2                !
 ! R38   R(27,28)                1.5353         estimate D2E/DX2                !
 ! R39   R(27,29)                1.5329         estimate D2E/DX2                !
 ! R40   R(27,30)                1.0919         estimate D2E/DX2                !
 ! R41   R(28,31)                1.5335         estimate D2E/DX2                !
 ! R42   R(28,32)                1.0961         estimate D2E/DX2                !
 ! R43   R(28,33)                1.093          estimate D2E/DX2                !
 ! R44   R(29,34)                1.533          estimate D2E/DX2                !
 ! R45   R(29,35)                1.0958         estimate D2E/DX2                !
 ! R46   R(29,36)                1.0927         estimate D2E/DX2                !
 ! R47   R(31,37)                1.5323         estimate D2E/DX2                !
 ! R48   R(31,38)                1.0935         estimate D2E/DX2                !
 ! R49   R(31,39)                1.0967         estimate D2E/DX2                !
 ! R50   R(34,37)                1.5329         estimate D2E/DX2                !
 ! R51   R(34,40)                1.0934         estimate D2E/DX2                !
 ! R52   R(34,41)                1.0967         estimate D2E/DX2                !
 ! R53   R(37,42)                1.0936         estimate D2E/DX2                !
 ! R54   R(37,43)                1.097          estimate D2E/DX2                !
 ! R55   R(46,47)                1.07           estimate D2E/DX2                !
 ! R56   R(46,48)                1.07           estimate D2E/DX2                !
 ! R57   R(46,49)                1.07           estimate D2E/DX2                !
 ! R58   R(50,51)                1.07           estimate D2E/DX2                !
 ! R59   R(50,52)                1.07           estimate D2E/DX2                !
 ! R60   R(50,53)                1.07           estimate D2E/DX2                !
 ! R61   R(54,55)                1.07           estimate D2E/DX2                !
 ! R62   R(54,56)                1.07           estimate D2E/DX2                !
 ! R63   R(54,57)                1.07           estimate D2E/DX2                !
 ! R64   R(58,59)                1.07           estimate D2E/DX2                !
 ! R65   R(58,60)                1.07           estimate D2E/DX2                !
 ! R66   R(58,61)                1.07           estimate D2E/DX2                !
 ! R67   R(62,63)                1.07           estimate D2E/DX2                !
 ! R68   R(62,64)                1.07           estimate D2E/DX2                !
 ! R69   R(62,65)                1.07           estimate D2E/DX2                !
 ! R70   R(66,67)                1.07           estimate D2E/DX2                !
 ! R71   R(66,68)                1.07           estimate D2E/DX2                !
 ! R72   R(66,69)                1.07           estimate D2E/DX2                !
 ! A1    A(2,1,6)              119.902          estimate D2E/DX2                !
 ! A2    A(2,1,23)             110.6666         estimate D2E/DX2                !
 ! A3    A(6,1,23)             129.4312         estimate D2E/DX2                !
 ! A4    A(1,2,3)              122.1856         estimate D2E/DX2                !
 ! A5    A(1,2,11)             104.4079         estimate D2E/DX2                !
 ! A6    A(3,2,11)             133.4063         estimate D2E/DX2                !
 ! A7    A(2,3,4)              117.3186         estimate D2E/DX2                !
 ! A8    A(2,3,8)              121.4289         estimate D2E/DX2                !
 ! A9    A(4,3,8)              121.2525         estimate D2E/DX2                !
 ! A10   A(3,4,5)              121.6397         estimate D2E/DX2                !
 ! A11   A(3,4,9)              119.1403         estimate D2E/DX2                !
 ! A12   A(5,4,9)              119.22           estimate D2E/DX2                !
 ! A13   A(4,5,6)              121.431          estimate D2E/DX2                !
 ! A14   A(4,5,10)             119.6923         estimate D2E/DX2                !
 ! A15   A(6,5,10)             118.8764         estimate D2E/DX2                !
 ! A16   A(1,6,5)              117.5194         estimate D2E/DX2                !
 ! A17   A(1,6,24)             122.0066         estimate D2E/DX2                !
 ! A18   A(5,6,24)             120.4694         estimate D2E/DX2                !
 ! A19   A(11,7,13)            123.0616         estimate D2E/DX2                !
 ! A20   A(11,7,23)            111.7607         estimate D2E/DX2                !
 ! A21   A(13,7,23)            125.1775         estimate D2E/DX2                !
 ! A22   A(2,11,7)             108.0917         estimate D2E/DX2                !
 ! A23   A(2,11,44)            130.7019         estimate D2E/DX2                !
 ! A24   A(7,11,44)            121.2034         estimate D2E/DX2                !
 ! A25   A(13,12,17)           117.6958         estimate D2E/DX2                !
 ! A26   A(13,12,22)           122.2136         estimate D2E/DX2                !
 ! A27   A(17,12,22)           120.0903         estimate D2E/DX2                !
 ! A28   A(7,13,12)            120.2924         estimate D2E/DX2                !
 ! A29   A(7,13,14)            119.8713         estimate D2E/DX2                !
 ! A30   A(12,13,14)           119.8362         estimate D2E/DX2                !
 ! A31   A(13,14,15)           121.5478         estimate D2E/DX2                !
 ! A32   A(13,14,18)           119.0059         estimate D2E/DX2                !
 ! A33   A(15,14,18)           119.4439         estimate D2E/DX2                !
 ! A34   A(14,15,16)           119.2117         estimate D2E/DX2                !
 ! A35   A(14,15,20)           119.9008         estimate D2E/DX2                !
 ! A36   A(16,15,20)           120.8838         estimate D2E/DX2                !
 ! A37   A(15,16,17)           122.2155         estimate D2E/DX2                !
 ! A38   A(15,16,19)           118.5232         estimate D2E/DX2                !
 ! A39   A(17,16,19)           119.2599         estimate D2E/DX2                !
 ! A40   A(12,17,16)           119.4851         estimate D2E/DX2                !
 ! A41   A(12,17,21)           117.8252         estimate D2E/DX2                !
 ! A42   A(16,17,21)           122.6874         estimate D2E/DX2                !
 ! A43   A(15,20,58)           110.2861         estimate D2E/DX2                !
 ! A44   A(15,20,62)           110.8331         estimate D2E/DX2                !
 ! A45   A(15,20,66)           111.526          estimate D2E/DX2                !
 ! A46   A(58,20,62)           106.6963         estimate D2E/DX2                !
 ! A47   A(58,20,66)           108.606          estimate D2E/DX2                !
 ! A48   A(62,20,66)           108.7427         estimate D2E/DX2                !
 ! A49   A(17,21,46)           110.6012         estimate D2E/DX2                !
 ! A50   A(17,21,50)           110.9075         estimate D2E/DX2                !
 ! A51   A(17,21,54)           110.852          estimate D2E/DX2                !
 ! A52   A(46,21,50)           109.0656         estimate D2E/DX2                !
 ! A53   A(46,21,54)           106.4234         estimate D2E/DX2                !
 ! A54   A(50,21,54)           108.8647         estimate D2E/DX2                !
 ! A55   A(1,23,7)             105.0729         estimate D2E/DX2                !
 ! A56   A(6,24,25)            118.9425         estimate D2E/DX2                !
 ! A57   A(6,24,26)            123.0694         estimate D2E/DX2                !
 ! A58   A(25,24,26)           117.988          estimate D2E/DX2                !
 ! A59   A(24,26,27)           125.1394         estimate D2E/DX2                !
 ! A60   A(24,26,45)           116.0886         estimate D2E/DX2                !
 ! A61   A(27,26,45)           118.76           estimate D2E/DX2                !
 ! A62   A(26,27,28)           110.8744         estimate D2E/DX2                !
 ! A63   A(26,27,29)           111.5105         estimate D2E/DX2                !
 ! A64   A(26,27,30)           104.8023         estimate D2E/DX2                !
 ! A65   A(28,27,29)           111.5298         estimate D2E/DX2                !
 ! A66   A(28,27,30)           108.9113         estimate D2E/DX2                !
 ! A67   A(29,27,30)           108.9476         estimate D2E/DX2                !
 ! A68   A(27,28,31)           110.1312         estimate D2E/DX2                !
 ! A69   A(27,28,32)           108.5881         estimate D2E/DX2                !
 ! A70   A(27,28,33)           109.6966         estimate D2E/DX2                !
 ! A71   A(31,28,32)           109.876          estimate D2E/DX2                !
 ! A72   A(31,28,33)           110.9468         estimate D2E/DX2                !
 ! A73   A(32,28,33)           107.5355         estimate D2E/DX2                !
 ! A74   A(27,29,34)           110.1995         estimate D2E/DX2                !
 ! A75   A(27,29,35)           109.1338         estimate D2E/DX2                !
 ! A76   A(27,29,36)           109.5694         estimate D2E/DX2                !
 ! A77   A(34,29,35)           109.1545         estimate D2E/DX2                !
 ! A78   A(34,29,36)           111.2174         estimate D2E/DX2                !
 ! A79   A(35,29,36)           107.5032         estimate D2E/DX2                !
 ! A80   A(28,31,37)           111.5414         estimate D2E/DX2                !
 ! A81   A(28,31,38)           109.6973         estimate D2E/DX2                !
 ! A82   A(28,31,39)           108.8635         estimate D2E/DX2                !
 ! A83   A(37,31,38)           110.6498         estimate D2E/DX2                !
 ! A84   A(37,31,39)           109.2041         estimate D2E/DX2                !
 ! A85   A(38,31,39)           106.7491         estimate D2E/DX2                !
 ! A86   A(29,34,37)           111.2264         estimate D2E/DX2                !
 ! A87   A(29,34,40)           109.3661         estimate D2E/DX2                !
 ! A88   A(29,34,41)           109.1659         estimate D2E/DX2                !
 ! A89   A(37,34,40)           110.7104         estimate D2E/DX2                !
 ! A90   A(37,34,41)           109.3609         estimate D2E/DX2                !
 ! A91   A(40,34,41)           106.9024         estimate D2E/DX2                !
 ! A92   A(31,37,34)           111.072          estimate D2E/DX2                !
 ! A93   A(31,37,42)           110.1398         estimate D2E/DX2                !
 ! A94   A(31,37,43)           109.2524         estimate D2E/DX2                !
 ! A95   A(34,37,42)           110.2018         estimate D2E/DX2                !
 ! A96   A(34,37,43)           109.1225         estimate D2E/DX2                !
 ! A97   A(42,37,43)           106.9522         estimate D2E/DX2                !
 ! A98   A(21,46,47)           109.4712         estimate D2E/DX2                !
 ! A99   A(21,46,48)           109.4712         estimate D2E/DX2                !
 ! A100  A(21,46,49)           109.4712         estimate D2E/DX2                !
 ! A101  A(47,46,48)           109.4713         estimate D2E/DX2                !
 ! A102  A(47,46,49)           109.4712         estimate D2E/DX2                !
 ! A103  A(48,46,49)           109.4712         estimate D2E/DX2                !
 ! A104  A(21,50,51)           109.4712         estimate D2E/DX2                !
 ! A105  A(21,50,52)           109.4712         estimate D2E/DX2                !
 ! A106  A(21,50,53)           109.4712         estimate D2E/DX2                !
 ! A107  A(51,50,52)           109.4713         estimate D2E/DX2                !
 ! A108  A(51,50,53)           109.4712         estimate D2E/DX2                !
 ! A109  A(52,50,53)           109.4712         estimate D2E/DX2                !
 ! A110  A(21,54,55)           109.4712         estimate D2E/DX2                !
 ! A111  A(21,54,56)           109.4712         estimate D2E/DX2                !
 ! A112  A(21,54,57)           109.4712         estimate D2E/DX2                !
 ! A113  A(55,54,56)           109.4713         estimate D2E/DX2                !
 ! A114  A(55,54,57)           109.4712         estimate D2E/DX2                !
 ! A115  A(56,54,57)           109.4712         estimate D2E/DX2                !
 ! A116  A(20,58,59)           109.4712         estimate D2E/DX2                !
 ! A117  A(20,58,60)           109.4712         estimate D2E/DX2                !
 ! A118  A(20,58,61)           109.4712         estimate D2E/DX2                !
 ! A119  A(59,58,60)           109.4713         estimate D2E/DX2                !
 ! A120  A(59,58,61)           109.4712         estimate D2E/DX2                !
 ! A121  A(60,58,61)           109.4712         estimate D2E/DX2                !
 ! A122  A(20,62,63)           109.4712         estimate D2E/DX2                !
 ! A123  A(20,62,64)           109.4712         estimate D2E/DX2                !
 ! A124  A(20,62,65)           109.4712         estimate D2E/DX2                !
 ! A125  A(63,62,64)           109.4713         estimate D2E/DX2                !
 ! A126  A(63,62,65)           109.4712         estimate D2E/DX2                !
 ! A127  A(64,62,65)           109.4712         estimate D2E/DX2                !
 ! A128  A(20,66,67)           109.4712         estimate D2E/DX2                !
 ! A129  A(20,66,68)           109.4712         estimate D2E/DX2                !
 ! A130  A(20,66,69)           109.4712         estimate D2E/DX2                !
 ! A131  A(67,66,68)           109.4713         estimate D2E/DX2                !
 ! A132  A(67,66,69)           109.4712         estimate D2E/DX2                !
 ! A133  A(68,66,69)           109.4712         estimate D2E/DX2                !
 ! D1    D(6,1,2,3)             -0.1505         estimate D2E/DX2                !
 ! D2    D(6,1,2,11)           179.7165         estimate D2E/DX2                !
 ! D3    D(23,1,2,3)          -179.9601         estimate D2E/DX2                !
 ! D4    D(23,1,2,11)           -0.0932         estimate D2E/DX2                !
 ! D5    D(2,1,6,5)              0.6147         estimate D2E/DX2                !
 ! D6    D(2,1,6,24)          -178.6103         estimate D2E/DX2                !
 ! D7    D(23,1,6,5)          -179.6159         estimate D2E/DX2                !
 ! D8    D(23,1,6,24)            1.1591         estimate D2E/DX2                !
 ! D9    D(2,1,23,7)            -0.004          estimate D2E/DX2                !
 ! D10   D(6,1,23,7)          -179.7904         estimate D2E/DX2                !
 ! D11   D(1,2,3,4)             -0.3095         estimate D2E/DX2                !
 ! D12   D(1,2,3,8)            179.6865         estimate D2E/DX2                !
 ! D13   D(11,2,3,4)           179.8679         estimate D2E/DX2                !
 ! D14   D(11,2,3,8)            -0.1361         estimate D2E/DX2                !
 ! D15   D(1,2,11,7)             0.1522         estimate D2E/DX2                !
 ! D16   D(1,2,11,44)         -179.2072         estimate D2E/DX2                !
 ! D17   D(3,2,11,7)           179.9972         estimate D2E/DX2                !
 ! D18   D(3,2,11,44)            0.6378         estimate D2E/DX2                !
 ! D19   D(2,3,4,5)              0.2956         estimate D2E/DX2                !
 ! D20   D(2,3,4,9)           -179.7472         estimate D2E/DX2                !
 ! D21   D(8,3,4,5)           -179.7005         estimate D2E/DX2                !
 ! D22   D(8,3,4,9)              0.2567         estimate D2E/DX2                !
 ! D23   D(3,4,5,6)              0.1839         estimate D2E/DX2                !
 ! D24   D(3,4,5,10)           179.9734         estimate D2E/DX2                !
 ! D25   D(9,4,5,6)           -179.7733         estimate D2E/DX2                !
 ! D26   D(9,4,5,10)             0.0162         estimate D2E/DX2                !
 ! D27   D(4,5,6,1)             -0.6366         estimate D2E/DX2                !
 ! D28   D(4,5,6,24)           178.6009         estimate D2E/DX2                !
 ! D29   D(10,5,6,1)           179.5722         estimate D2E/DX2                !
 ! D30   D(10,5,6,24)           -1.1903         estimate D2E/DX2                !
 ! D31   D(1,6,24,25)         -179.7764         estimate D2E/DX2                !
 ! D32   D(1,6,24,26)            0.366          estimate D2E/DX2                !
 ! D33   D(5,6,24,25)            1.021          estimate D2E/DX2                !
 ! D34   D(5,6,24,26)         -178.8366         estimate D2E/DX2                !
 ! D35   D(13,7,11,2)          179.6479         estimate D2E/DX2                !
 ! D36   D(13,7,11,44)          -0.9199         estimate D2E/DX2                !
 ! D37   D(23,7,11,2)           -0.1678         estimate D2E/DX2                !
 ! D38   D(23,7,11,44)         179.2645         estimate D2E/DX2                !
 ! D39   D(11,7,13,12)           2.7304         estimate D2E/DX2                !
 ! D40   D(11,7,13,14)        -177.1479         estimate D2E/DX2                !
 ! D41   D(23,7,13,12)        -177.479          estimate D2E/DX2                !
 ! D42   D(23,7,13,14)           2.6427         estimate D2E/DX2                !
 ! D43   D(11,7,23,1)            0.1044         estimate D2E/DX2                !
 ! D44   D(13,7,23,1)         -179.7066         estimate D2E/DX2                !
 ! D45   D(17,12,13,7)         179.7233         estimate D2E/DX2                !
 ! D46   D(17,12,13,14)         -0.3983         estimate D2E/DX2                !
 ! D47   D(22,12,13,7)          -0.4664         estimate D2E/DX2                !
 ! D48   D(22,12,13,14)        179.4119         estimate D2E/DX2                !
 ! D49   D(13,12,17,16)          0.7391         estimate D2E/DX2                !
 ! D50   D(13,12,17,21)       -179.8131         estimate D2E/DX2                !
 ! D51   D(22,12,17,16)       -179.0753         estimate D2E/DX2                !
 ! D52   D(22,12,17,21)          0.3725         estimate D2E/DX2                !
 ! D53   D(7,13,14,15)         179.4545         estimate D2E/DX2                !
 ! D54   D(7,13,14,18)           0.0158         estimate D2E/DX2                !
 ! D55   D(12,13,14,15)         -0.4244         estimate D2E/DX2                !
 ! D56   D(12,13,14,18)       -179.8631         estimate D2E/DX2                !
 ! D57   D(13,14,15,16)          0.9108         estimate D2E/DX2                !
 ! D58   D(13,14,15,20)       -178.3966         estimate D2E/DX2                !
 ! D59   D(18,14,15,16)       -179.6529         estimate D2E/DX2                !
 ! D60   D(18,14,15,20)          1.0396         estimate D2E/DX2                !
 ! D61   D(14,15,16,17)         -0.5546         estimate D2E/DX2                !
 ! D62   D(14,15,16,19)        179.8866         estimate D2E/DX2                !
 ! D63   D(20,15,16,17)        178.7458         estimate D2E/DX2                !
 ! D64   D(20,15,16,19)         -0.813          estimate D2E/DX2                !
 ! D65   D(14,15,20,58)         60.4212         estimate D2E/DX2                !
 ! D66   D(14,15,20,62)        -57.508          estimate D2E/DX2                !
 ! D67   D(14,15,20,66)       -178.8178         estimate D2E/DX2                !
 ! D68   D(16,15,20,58)       -118.8745         estimate D2E/DX2                !
 ! D69   D(16,15,20,62)        123.1964         estimate D2E/DX2                !
 ! D70   D(16,15,20,66)          1.8865         estimate D2E/DX2                !
 ! D71   D(15,16,17,12)         -0.2723         estimate D2E/DX2                !
 ! D72   D(15,16,17,21)       -179.692          estimate D2E/DX2                !
 ! D73   D(19,16,17,12)        179.2834         estimate D2E/DX2                !
 ! D74   D(19,16,17,21)         -0.1364         estimate D2E/DX2                !
 ! D75   D(12,17,21,46)        -55.9473         estimate D2E/DX2                !
 ! D76   D(12,17,21,50)       -177.0892         estimate D2E/DX2                !
 ! D77   D(12,17,21,54)         61.8536         estimate D2E/DX2                !
 ! D78   D(16,17,21,46)        123.4816         estimate D2E/DX2                !
 ! D79   D(16,17,21,50)          2.3396         estimate D2E/DX2                !
 ! D80   D(16,17,21,54)       -118.7175         estimate D2E/DX2                !
 ! D81   D(15,20,58,59)        152.0961         estimate D2E/DX2                !
 ! D82   D(15,20,58,60)        -87.9039         estimate D2E/DX2                !
 ! D83   D(15,20,58,61)         32.0961         estimate D2E/DX2                !
 ! D84   D(62,20,58,59)        -87.458          estimate D2E/DX2                !
 ! D85   D(62,20,58,60)         32.542          estimate D2E/DX2                !
 ! D86   D(62,20,58,61)        152.542          estimate D2E/DX2                !
 ! D87   D(66,20,58,59)         29.6029         estimate D2E/DX2                !
 ! D88   D(66,20,58,60)        149.603          estimate D2E/DX2                !
 ! D89   D(66,20,58,61)        -90.397          estimate D2E/DX2                !
 ! D90   D(15,20,62,63)         81.8192         estimate D2E/DX2                !
 ! D91   D(15,20,62,64)       -158.1808         estimate D2E/DX2                !
 ! D92   D(15,20,62,65)        -38.1808         estimate D2E/DX2                !
 ! D93   D(58,20,62,63)        -38.2751         estimate D2E/DX2                !
 ! D94   D(58,20,62,64)         81.7249         estimate D2E/DX2                !
 ! D95   D(58,20,62,65)       -158.2751         estimate D2E/DX2                !
 ! D96   D(66,20,62,63)       -155.2454         estimate D2E/DX2                !
 ! D97   D(66,20,62,64)        -35.2454         estimate D2E/DX2                !
 ! D98   D(66,20,62,65)         84.7546         estimate D2E/DX2                !
 ! D99   D(15,20,66,67)        -60.8832         estimate D2E/DX2                !
 ! D100  D(15,20,66,68)         59.1168         estimate D2E/DX2                !
 ! D101  D(15,20,66,69)        179.1168         estimate D2E/DX2                !
 ! D102  D(58,20,66,67)         60.8554         estimate D2E/DX2                !
 ! D103  D(58,20,66,68)       -179.1446         estimate D2E/DX2                !
 ! D104  D(58,20,66,69)        -59.1446         estimate D2E/DX2                !
 ! D105  D(62,20,66,67)        176.5992         estimate D2E/DX2                !
 ! D106  D(62,20,66,68)        -63.4008         estimate D2E/DX2                !
 ! D107  D(62,20,66,69)         56.5992         estimate D2E/DX2                !
 ! D108  D(17,21,46,47)         95.2634         estimate D2E/DX2                !
 ! D109  D(17,21,46,48)       -144.7365         estimate D2E/DX2                !
 ! D110  D(17,21,46,49)        -24.7365         estimate D2E/DX2                !
 ! D111  D(50,21,46,47)       -142.5092         estimate D2E/DX2                !
 ! D112  D(50,21,46,48)        -22.5092         estimate D2E/DX2                !
 ! D113  D(50,21,46,49)         97.4908         estimate D2E/DX2                !
 ! D114  D(54,21,46,47)        -25.2173         estimate D2E/DX2                !
 ! D115  D(54,21,46,48)         94.7827         estimate D2E/DX2                !
 ! D116  D(54,21,46,49)       -145.2173         estimate D2E/DX2                !
 ! D117  D(17,21,50,51)        179.8776         estimate D2E/DX2                !
 ! D118  D(17,21,50,52)        -60.1224         estimate D2E/DX2                !
 ! D119  D(17,21,50,53)         59.8776         estimate D2E/DX2                !
 ! D120  D(46,21,50,51)         57.835          estimate D2E/DX2                !
 ! D121  D(46,21,50,52)        177.835          estimate D2E/DX2                !
 ! D122  D(46,21,50,53)        -62.165          estimate D2E/DX2                !
 ! D123  D(54,21,50,51)        -57.9003         estimate D2E/DX2                !
 ! D124  D(54,21,50,52)         62.0997         estimate D2E/DX2                !
 ! D125  D(54,21,50,53)       -177.9003         estimate D2E/DX2                !
 ! D126  D(17,21,54,55)        -89.1735         estimate D2E/DX2                !
 ! D127  D(17,21,54,56)         30.8265         estimate D2E/DX2                !
 ! D128  D(17,21,54,57)        150.8265         estimate D2E/DX2                !
 ! D129  D(46,21,54,55)         31.1455         estimate D2E/DX2                !
 ! D130  D(46,21,54,56)        151.1455         estimate D2E/DX2                !
 ! D131  D(46,21,54,57)        -88.8545         estimate D2E/DX2                !
 ! D132  D(50,21,54,55)        148.5707         estimate D2E/DX2                !
 ! D133  D(50,21,54,56)        -91.4292         estimate D2E/DX2                !
 ! D134  D(50,21,54,57)         28.5708         estimate D2E/DX2                !
 ! D135  D(6,24,26,27)         178.9781         estimate D2E/DX2                !
 ! D136  D(6,24,26,45)           0.2544         estimate D2E/DX2                !
 ! D137  D(25,24,26,27)         -0.8808         estimate D2E/DX2                !
 ! D138  D(25,24,26,45)       -179.6045         estimate D2E/DX2                !
 ! D139  D(24,26,27,28)        -69.6216         estimate D2E/DX2                !
 ! D140  D(24,26,27,29)         55.3008         estimate D2E/DX2                !
 ! D141  D(24,26,27,30)        173.0202         estimate D2E/DX2                !
 ! D142  D(45,26,27,28)        109.0709         estimate D2E/DX2                !
 ! D143  D(45,26,27,29)       -126.0067         estimate D2E/DX2                !
 ! D144  D(45,26,27,30)         -8.2873         estimate D2E/DX2                !
 ! D145  D(26,27,28,31)       -178.3534         estimate D2E/DX2                !
 ! D146  D(26,27,28,32)         61.2943         estimate D2E/DX2                !
 ! D147  D(26,27,28,33)        -55.9655         estimate D2E/DX2                !
 ! D148  D(29,27,28,31)         56.7349         estimate D2E/DX2                !
 ! D149  D(29,27,28,32)        -63.6173         estimate D2E/DX2                !
 ! D150  D(29,27,28,33)        179.1229         estimate D2E/DX2                !
 ! D151  D(30,27,28,31)        -63.5389         estimate D2E/DX2                !
 ! D152  D(30,27,28,32)        176.1089         estimate D2E/DX2                !
 ! D153  D(30,27,28,33)         58.8491         estimate D2E/DX2                !
 ! D154  D(26,27,29,34)        178.2976         estimate D2E/DX2                !
 ! D155  D(26,27,29,35)        -61.8538         estimate D2E/DX2                !
 ! D156  D(26,27,29,36)         55.6103         estimate D2E/DX2                !
 ! D157  D(28,27,29,34)        -57.1466         estimate D2E/DX2                !
 ! D158  D(28,27,29,35)         62.702          estimate D2E/DX2                !
 ! D159  D(28,27,29,36)       -179.8338         estimate D2E/DX2                !
 ! D160  D(30,27,29,34)         63.106          estimate D2E/DX2                !
 ! D161  D(30,27,29,35)       -177.0455         estimate D2E/DX2                !
 ! D162  D(30,27,29,36)        -59.5813         estimate D2E/DX2                !
 ! D163  D(27,28,31,37)        -55.6611         estimate D2E/DX2                !
 ! D164  D(27,28,31,38)       -178.6188         estimate D2E/DX2                !
 ! D165  D(27,28,31,39)         64.908          estimate D2E/DX2                !
 ! D166  D(32,28,31,37)         63.9118         estimate D2E/DX2                !
 ! D167  D(32,28,31,38)        -59.0459         estimate D2E/DX2                !
 ! D168  D(32,28,31,39)       -175.5191         estimate D2E/DX2                !
 ! D169  D(33,28,31,37)       -177.3086         estimate D2E/DX2                !
 ! D170  D(33,28,31,38)         59.7337         estimate D2E/DX2                !
 ! D171  D(33,28,31,39)        -56.7395         estimate D2E/DX2                !
 ! D172  D(27,29,34,37)         56.2879         estimate D2E/DX2                !
 ! D173  D(27,29,34,40)        178.8802         estimate D2E/DX2                !
 ! D174  D(27,29,34,41)        -64.4767         estimate D2E/DX2                !
 ! D175  D(35,29,34,37)        -63.5481         estimate D2E/DX2                !
 ! D176  D(35,29,34,40)         59.0442         estimate D2E/DX2                !
 ! D177  D(35,29,34,41)        175.6872         estimate D2E/DX2                !
 ! D178  D(36,29,34,37)        178.0023         estimate D2E/DX2                !
 ! D179  D(36,29,34,40)        -59.4054         estimate D2E/DX2                !
 ! D180  D(36,29,34,41)         57.2376         estimate D2E/DX2                !
 ! D181  D(28,31,37,34)         55.5211         estimate D2E/DX2                !
 ! D182  D(28,31,37,42)        177.8977         estimate D2E/DX2                !
 ! D183  D(28,31,37,43)        -64.9056         estimate D2E/DX2                !
 ! D184  D(38,31,37,34)        177.9333         estimate D2E/DX2                !
 ! D185  D(38,31,37,42)        -59.6901         estimate D2E/DX2                !
 ! D186  D(38,31,37,43)         57.5066         estimate D2E/DX2                !
 ! D187  D(39,31,37,34)        -64.8483         estimate D2E/DX2                !
 ! D188  D(39,31,37,42)         57.5283         estimate D2E/DX2                !
 ! D189  D(39,31,37,43)        174.725          estimate D2E/DX2                !
 ! D190  D(29,34,37,31)        -55.7187         estimate D2E/DX2                !
 ! D191  D(29,34,37,42)       -178.0593         estimate D2E/DX2                !
 ! D192  D(29,34,37,43)         64.7849         estimate D2E/DX2                !
 ! D193  D(40,34,37,31)       -177.5324         estimate D2E/DX2                !
 ! D194  D(40,34,37,42)         60.1269         estimate D2E/DX2                !
 ! D195  D(40,34,37,43)        -57.0289         estimate D2E/DX2                !
 ! D196  D(41,34,37,31)         64.9313         estimate D2E/DX2                !
 ! D197  D(41,34,37,42)        -57.4094         estimate D2E/DX2                !
 ! D198  D(41,34,37,43)       -174.5652         estimate D2E/DX2                !
 --------------------------------------------------------------------------------
 Trust Radius=3.00D-01 FncErr=5.00D-06 GrdErr=5.00D-06 EigMax=2.50D+02 EigMin=1.00D-04
 Number of steps in this run=    413 maximum allowed number of steps=    414.
 GradGradGradGradGradGradGradGradGradGradGradGradGradGradGradGradGradGrad

 Leave Link  103 at Thu Dec 20 17:37:43 2018, MaxMem=  1342177280 cpu:               0.2 elap:               0.0
 (Enter /gpfs/apps/hpc/Apps/Restricted/Gaussian/Rev_A.03/g16/l202.exe)
 Symmetry turned off by external request.
 Stoichiometry    C28H37N3O
 Framework group  C1[X(C28H37N3O)]
 Deg. of freedom   201
 Full point group                 C1      NOp   1
                          Input orientation:                          
 ---------------------------------------------------------------------
 Center     Atomic      Atomic             Coordinates (Angstroms)
 Number     Number       Type             X           Y           Z
 ---------------------------------------------------------------------
      1          6           0       -0.522494    2.720922    0.334065
      2          6           0       -1.920373    2.946812    0.271763
      3          6           0       -2.463177    4.228876    0.212392
      4          6           0       -1.570395    5.304776    0.222961
      5          6           0       -0.186106    5.109398    0.284154
      6          6           0        0.370713    3.819494    0.334037
      7          6           0       -1.452750    0.780255    0.352846
      8          1           0       -3.532801    4.387135    0.160090
      9          1           0       -1.960409    6.313878    0.182075
     10          1           0        0.477278    5.966428    0.290185
     11          7           0       -2.471007    1.687951    0.283828
     12          6           0       -3.031591   -1.196578    0.296443
     13          6           0       -1.671580   -0.652467    0.391436
     14          6           0       -0.595272   -1.510036    0.520762
     15          6           0       -0.768284   -2.907891    0.573466
     16          6           0       -2.071581   -3.446043    0.472613
     17          6           0       -3.186202   -2.649233    0.335069
     18          1           0        0.402578   -1.093778    0.592018
     19          1           0       -2.191689   -4.523616    0.512642
     20          6           0        0.420571   -3.801081    0.750214
     21          6           0       -4.569462   -3.206574    0.234261
     22          8           0       -4.043749   -0.457165    0.188619
     23          7           0       -0.251649    1.380692    0.383431
     24          6           0        1.789159    3.642879    0.366127
     25          1           0        2.427424    4.519920    0.368273
     26          7           0        2.357617    2.475252    0.390379
     27          6           0        3.814958    2.239787    0.402374
     28          6           0        4.441855    2.621128   -0.946264
     29          6           0        4.493205    2.972796    1.565347
     30          1           0        3.922406    1.163410    0.550830
     31          6           0        5.947690    2.331678   -0.928988
     32          1           0        4.269676    3.689290   -1.122042
     33          1           0        3.947441    2.071074   -1.750988
     34          6           0        5.996832    2.674097    1.574422
     35          1           0        4.341643    4.051631    1.447197
     36          1           0        4.025437    2.676423    2.507393
     37          6           0        6.644252    3.044126    0.235184
     38          1           0        6.391025    2.628503   -1.883476
     39          1           0        6.099723    1.249891   -0.832731
     40          1           0        6.469737    3.218788    2.396102
     41          1           0        6.150556    1.605923    1.769743
     42          1           0        7.708461    2.792674    0.247931
     43          1           0        6.573672    4.129155    0.089523
     44          1           0       -3.441808    1.388416    0.242278
     45          1           0        1.726118    1.665096    0.381226
     46          6           0       -5.472467   -2.617532    1.333903
     47          1           0       -6.010750   -1.779677    0.942559
     48          1           0       -6.164784   -3.363421    1.664428
     49          1           0       -4.869280   -2.300230    2.158757
     50          6           0       -4.554508   -4.741026    0.364010
     51          1           0       -5.554391   -5.114908    0.290895
     52          1           0       -3.959001   -5.159498   -0.420307
     53          1           0       -4.139743   -5.014816    1.311590
     54          6           0       -5.216798   -2.826855   -1.110495
     55          1           0       -5.724043   -1.890077   -1.010251
     56          1           0       -4.458237   -2.743244   -1.860491
     57          1           0       -5.917887   -3.583414   -1.395087
     58          6           0        1.133636   -3.484394    2.077937
     59          1           0        1.629733   -4.362750    2.434698
     60          1           0        1.852667   -2.707846    1.920244
     61          1           0        0.413947   -3.162550    2.801377
     62          6           0        1.450545   -3.570299   -0.371166
     63          1           0        2.048820   -2.715073   -0.135463
     64          1           0        2.079129   -4.431539   -0.460876
     65          1           0        0.939318   -3.403937   -1.296298
     66          6           0        0.015722   -5.286912    0.752134
     67          1           0       -0.655060   -5.472761    1.564791
     68          1           0       -0.468358   -5.525876   -0.171696
     69          1           0        0.889293   -5.894461    0.864641
 ---------------------------------------------------------------------
 Rotational constants (GHZ):           0.1828160           0.0733945           0.0548104
 Leave Link  202 at Thu Dec 20 17:37:43 2018, MaxMem=  1342177280 cpu:               0.1 elap:               0.0
 (Enter /gpfs/apps/hpc/Apps/Restricted/Gaussian/Rev_A.03/g16/l301.exe)
 Standard basis: 6-31G(d,p) (6D, 7F)
 Ernie: Thresh=  0.10000D-02 Tol=  0.10000D-05 Strict=F.
   665 basis functions,  1155 primitive gaussians,   665 cartesian basis functions
   117 alpha electrons      117 beta electrons
       nuclear repulsion energy      3180.9171643362 Hartrees.
 IExCor=  402 DFT=T Ex+Corr=B3LYP ExCW=0 ScaHFX=  0.200000
 ScaDFX=  0.800000  0.720000  1.000000  0.810000 ScalE2=  1.000000  1.000000
 IRadAn=      5 IRanWt=     -1 IRanGd=            0 ICorTp=0 IEmpDi=141
 NAtoms=   69 NActive=   69 NUniq=   69 SFac= 1.00D+00 NAtFMM=   60 NAOKFM=T Big=T
 Integral buffers will be    131072 words long.
 Raffenetti 2 integral format.
 Two-electron integral symmetry is turned off.
 R6Disp:  Grimme-D3(BJ) Dispersion energy=       -0.1510629086 Hartrees.
 Nuclear repulsion after empirical dispersion term =     3180.7661014276 Hartrees.
 Using the following non-standard input for PCM:
 radii=bondi
 dis
 rep
 cav
 --- end of non-standard input.
 ------------------------------------------------------------------------------
 Polarizable Continuum Model (PCM)
 =================================
 Model                : C-PCM.
 Atomic radii         : Bondi.
 Polarization charges : Total charges.
 Charge compensation  : None.
 Solution method      : On-the-fly selection.
 Cavity type          : Scaled VdW (van der Waals Surface) (Alpha=1.100).
 Cavity algorithm     : GePol (No added spheres)
                        Default sphere list used, NSphG=   69.
                        Lebedev-Laikov grids with approx.  5.0 points / Ang**2.
                        Smoothing algorithm: York/Karplus (Gamma=1.0000).
                        Polarization charges: spherical gaussians, with
                                              point-specific exponents (IZeta= 3).
                        Self-potential: point-specific (ISelfS= 7).
                        Self-field    : sphere-specific E.n sum rule (ISelfD= 2).
 1st derivatives      : Analytical E(r).r(x)/FMM algorithm (CHGder, D1EAlg=3).
                        Cavity 1st derivative terms included.
 Solvent              : Dichloromethane, Eps=   8.930000 Eps(inf)=   2.028346
 ------------------------------------------------------------------------------
 GePol: Number of generator spheres                  =      69
 GePol: Total number of spheres                      =      69
 GePol: Number of exposed spheres                    =      69 (100.00%)
 GePol: Number of points                             =    4304
 GePol: Average weight of points                     =       0.12
 GePol: Minimum weight of points                     =   0.50D-10
 GePol: Maximum weight of points                     =    0.21770
 GePol: Number of points with low weight             =     320
 GePol: Fraction of low-weight points (<1% of avg)   =       7.43%
 GePol: Cavity surface area                          =    513.526 Ang**2
 GePol: Cavity volume                                =    497.342 Ang**3
 PCM non-electrostatic energy =         0.0247158079 Hartrees.
 Nuclear repulsion after PCM non-electrostatic terms =     3180.7908172355 Hartrees.
 Leave Link  301 at Thu Dec 20 17:37:44 2018, MaxMem=  1342177280 cpu:               6.1 elap:               0.4
 (Enter /gpfs/apps/hpc/Apps/Restricted/Gaussian/Rev_A.03/g16/l302.exe)
 NPDir=0 NMtPBC=     1 NCelOv=     1 NCel=       1 NClECP=     1 NCelD=      1
         NCelK=      1 NCelE2=     1 NClLst=     1 CellRange=     0.0.
 One-electron integrals computed using PRISM.
 NBasis=   665 RedAO= T EigKep=  3.12D-04  NBF=   665
 NBsUse=   665 1.00D-06 EigRej= -1.00D+00 NBFU=   665
 Precomputing XC quadrature grid using
 IXCGrd= 4 IRadAn=           5 IRanWt=          -1 IRanGd=           0 AccXCQ= 0.00D+00.
 Generated NRdTot=       0 NPtTot=           0 NUsed=           0 NTot=          32
 NSgBfM=   650   650   650   650   650 MxSgAt=    69 MxSgA2=    69.
 Leave Link  302 at Thu Dec 20 17:37:45 2018, MaxMem=  1342177280 cpu:              24.4 elap:               1.6
 (Enter /gpfs/apps/hpc/Apps/Restricted/Gaussian/Rev_A.03/g16/l303.exe)
 DipDrv:  MaxL=1.
 Leave Link  303 at Thu Dec 20 17:37:46 2018, MaxMem=  1342177280 cpu:               2.0 elap:               0.5
 (Enter /gpfs/apps/hpc/Apps/Restricted/Gaussian/Rev_A.03/g16/l401.exe)
 ExpMin= 1.61D-01 ExpMax= 5.48D+03 ExpMxC= 8.25D+02 IAcc=3 IRadAn=         5 AccDes= 0.00D+00
 Harris functional with IExCor=  402 and IRadAn=       5 diagonalized for initial guess.
 HarFok:  IExCor=  402 AccDes= 0.00D+00 IRadAn=         5 IDoV= 1 UseB2=F ITyADJ=14
 ICtDFT=  3500011 ScaDFX=  1.000000  1.000000  1.000000  1.000000
 FoFCou: FMM=F IPFlag=           0 FMFlag=      100000 FMFlg1=        2001
         NFxFlg=           0 DoJE=T BraDBF=F KetDBF=T FulRan=T
         wScrn=  0.000000 ICntrl=       500 IOpCl=  0 I1Cent=   200000004 NGrid=           0
         NMat0=    1 NMatS0=      1 NMatT0=    0 NMatD0=    1 NMtDS0=    0 NMtDT0=    0
 Symmetry not used in FoFCou.
 Harris En= -1329.08037800064    
 JPrj=0 DoOrth=F DoCkMO=F.
 Leave Link  401 at Thu Dec 20 17:37:51 2018, MaxMem=  1342177280 cpu:              74.4 elap:               4.7
 (Enter /gpfs/apps/hpc/Apps/Restricted/Gaussian/Rev_A.03/g16/l502.exe)
 Two-electron integral symmetry not used.
 Closed shell SCF:
 Using DIIS extrapolation, IDIIS=  1040.
 NGot=  1342177280 LenX=  1341276554 LenY=  1340833664
 Requested convergence on RMS density matrix=1.00D-08 within 128 cycles.
 Requested convergence on MAX density matrix=1.00D-06.
 Requested convergence on             energy=1.00D-06.
 No special actions if energy rises.
 Fock matrices will be formed incrementally for  20 cycles.

 Cycle   1  Pass 1  IDiag  1:
 FoFJK:  IHMeth= 1 ICntrl=       0 DoSepK=F KAlg= 0 I1Cent=           0 FoldK=F
 IRaf= 770000000 NMat=       1 IRICut=       1 DoRegI=T DoRafI=F ISym2E= 0 IDoP0=0 IntGTp=1.
 FoFCou: FMM=T IPFlag=           0 FMFlag=      100000 FMFlg1=        2001
         NFxFlg=           0 DoJE=F BraDBF=F KetDBF=F FulRan=T
         wScrn=  0.000000 ICntrl=         0 IOpCl=  0 I1Cent=           0 NGrid=           0
         NMat0=    1 NMatS0=      1 NMatT0=    0 NMatD0=    1 NMtDS0=    0 NMtDT0=    0
 Symmetry not used in FoFCou.
 FMM levels:  10  Number of levels for PrismC:   9
 Inv3:  Mode=1 IEnd=    55573248.
 Iteration    1 A*A^-1 deviation from unit magnitude is 9.99D-15 for   1340.
 Iteration    1 A*A^-1 deviation from orthogonality  is 3.32D-15 for   4054    804.
 Iteration    1 A^-1*A deviation from unit magnitude is 9.99D-15 for   1340.
 Iteration    1 A^-1*A deviation from orthogonality  is 3.24D-15 for   4133    798.
 E= -1328.02731155185    
 DIIS: error= 3.43D-02 at cycle   1 NSaved=   1.
 NSaved= 1 IEnMin= 1 EnMin= -1328.02731155185     IErMin= 1 ErrMin= 3.43D-02
 ErrMax= 3.43D-02  0.00D+00 EMaxC= 1.00D-01 BMatC= 8.88D-01 BMatP= 8.88D-01
 IDIUse=3 WtCom= 6.57D-01 WtEn= 3.43D-01
 Coeff-Com:  0.100D+01
 Coeff-En:   0.100D+01
 Coeff:      0.100D+01
 Gap=     0.030 Goal=   None    Shift=    0.000
 GapD=    0.030 DampG=0.250 DampE=0.500 DampFc=0.2500 IDamp=-1.
 Damping current iteration by 2.50D-01
 RMSDP=3.83D-03 MaxDP=2.70D-01              OVMax= 6.50D-01

 Cycle   2  Pass 1  IDiag  1:
 RMSU=  9.37D-04    CP:  9.83D-01
 E= -1328.34306242731     Delta-E=       -0.315750875462 Rises=F Damp=T
 DIIS: error= 1.80D-02 at cycle   2 NSaved=   2.
 NSaved= 2 IEnMin= 2 EnMin= -1328.34306242731     IErMin= 2 ErrMin= 1.80D-02
 ErrMax= 1.80D-02  0.00D+00 EMaxC= 1.00D-01 BMatC= 2.28D-01 BMatP= 8.88D-01
 IDIUse=3 WtCom= 8.20D-01 WtEn= 1.80D-01
 Coeff-Com: -0.742D+00 0.174D+01
 Coeff-En:   0.000D+00 0.100D+01
 Coeff:     -0.608D+00 0.161D+01
 Gap=     0.065 Goal=   None    Shift=    0.000
 RMSDP=1.38D-03 MaxDP=8.06D-02 DE=-3.16D-01 OVMax= 6.95D-01

 Cycle   3  Pass 1  IDiag  1:
 RMSU=  1.26D-03    CP:  9.53D-01  1.46D+00
 E= -1328.81802863348     Delta-E=       -0.474966206161 Rises=F Damp=F
 DIIS: error= 1.94D-02 at cycle   3 NSaved=   3.
 NSaved= 3 IEnMin= 3 EnMin= -1328.81802863348     IErMin= 2 ErrMin= 1.80D-02
 ErrMax= 1.94D-02  0.00D+00 EMaxC= 1.00D-01 BMatC= 1.45D-01 BMatP= 2.28D-01
 IDIUse=3 WtCom= 8.06D-01 WtEn= 1.94D-01
 Coeff-Com: -0.478D+00 0.106D+01 0.419D+00
 Coeff-En:   0.000D+00 0.000D+00 0.100D+01
 Coeff:     -0.385D+00 0.853D+00 0.532D+00
 Gap=     0.079 Goal=   None    Shift=    0.000
 RMSDP=9.18D-04 MaxDP=1.03D-01 DE=-4.75D-01 OVMax= 2.46D-01

 Cycle   4  Pass 1  IDiag  1:
 RMSU=  6.61D-04    CP:  9.59D-01  1.63D+00  5.16D-01
 E= -1328.94060636364     Delta-E=       -0.122577730163 Rises=F Damp=F
 DIIS: error= 8.89D-03 at cycle   4 NSaved=   4.
 NSaved= 4 IEnMin= 4 EnMin= -1328.94060636364     IErMin= 4 ErrMin= 8.89D-03
 ErrMax= 8.89D-03  0.00D+00 EMaxC= 1.00D-01 BMatC= 2.21D-02 BMatP= 1.45D-01
 IDIUse=3 WtCom= 9.11D-01 WtEn= 8.89D-02
 Coeff-Com: -0.129D+00 0.270D+00 0.282D+00 0.577D+00
 Coeff-En:   0.000D+00 0.000D+00 0.907D-01 0.909D+00
 Coeff:     -0.117D+00 0.246D+00 0.265D+00 0.606D+00
 Gap=     0.068 Goal=   None    Shift=    0.000
 RMSDP=3.57D-04 MaxDP=4.65D-02 DE=-1.23D-01 OVMax= 8.67D-02

 Cycle   5  Pass 1  IDiag  1:
 RMSU=  2.17D-04    CP:  9.58D-01  1.57D+00  6.48D-01  6.67D-01
 E= -1328.95587051077     Delta-E=       -0.015264147130 Rises=F Damp=F
 DIIS: error= 4.23D-03 at cycle   5 NSaved=   5.
 NSaved= 5 IEnMin= 5 EnMin= -1328.95587051077     IErMin= 5 ErrMin= 4.23D-03
 ErrMax= 4.23D-03  0.00D+00 EMaxC= 1.00D-01 BMatC= 4.47D-03 BMatP= 2.21D-02
 IDIUse=3 WtCom= 9.58D-01 WtEn= 4.23D-02
 Coeff-Com: -0.400D-01 0.649D-01 0.882D-01 0.367D+00 0.520D+00
 Coeff-En:   0.000D+00 0.000D+00 0.000D+00 0.181D+00 0.819D+00
 Coeff:     -0.383D-01 0.622D-01 0.844D-01 0.359D+00 0.532D+00
 Gap=     0.073 Goal=   None    Shift=    0.000
 RMSDP=1.34D-04 MaxDP=1.66D-02 DE=-1.53D-02 OVMax= 3.15D-02

 Cycle   6  Pass 1  IDiag  1:
 RMSU=  6.65D-05    CP:  9.58D-01  1.59D+00  6.25D-01  7.68D-01  5.94D-01
 E= -1328.95956604215     Delta-E=       -0.003695531384 Rises=F Damp=F
 DIIS: error= 4.12D-04 at cycle   6 NSaved=   6.
 NSaved= 6 IEnMin= 6 EnMin= -1328.95956604215     IErMin= 6 ErrMin= 4.12D-04
 ErrMax= 4.12D-04  0.00D+00 EMaxC= 1.00D-01 BMatC= 2.13D-04 BMatP= 4.47D-03
 IDIUse=3 WtCom= 9.96D-01 WtEn= 4.12D-03
 Coeff-Com: -0.978D-02 0.108D-01 0.105D-01 0.119D+00 0.276D+00 0.593D+00
 Coeff-En:   0.000D+00 0.000D+00 0.000D+00 0.000D+00 0.000D+00 0.100D+01
 Coeff:     -0.974D-02 0.107D-01 0.105D-01 0.119D+00 0.275D+00 0.595D+00
 Gap=     0.072 Goal=   None    Shift=    0.000
 RMSDP=3.09D-05 MaxDP=3.02D-03 DE=-3.70D-03 OVMax= 5.37D-03

 Cycle   7  Pass 1  IDiag  1:
 RMSU=  2.12D-05    CP:  9.58D-01  1.59D+00  6.24D-01  7.72D-01  6.75D-01
                    CP:  8.06D-01
 E= -1328.95977560126     Delta-E=       -0.000209559105 Rises=F Damp=F
 DIIS: error= 1.72D-04 at cycle   7 NSaved=   7.
 NSaved= 7 IEnMin= 7 EnMin= -1328.95977560126     IErMin= 7 ErrMin= 1.72D-04
 ErrMax= 1.72D-04  0.00D+00 EMaxC= 1.00D-01 BMatC= 2.15D-05 BMatP= 2.13D-04
 IDIUse=3 WtCom= 9.98D-01 WtEn= 1.72D-03
 Coeff-Com: -0.176D-02 0.253D-03-0.538D-02 0.193D-01 0.894D-01 0.316D+00
 Coeff-Com:  0.583D+00
 Coeff-En:   0.000D+00 0.000D+00 0.000D+00 0.000D+00 0.000D+00 0.000D+00
 Coeff-En:   0.100D+01
 Coeff:     -0.176D-02 0.252D-03-0.537D-02 0.193D-01 0.893D-01 0.315D+00
 Coeff:      0.583D+00
 Gap=     0.072 Goal=   None    Shift=    0.000
 RMSDP=9.57D-06 MaxDP=7.23D-04 DE=-2.10D-04 OVMax= 2.22D-03

 Cycle   8  Pass 1  IDiag  1:
 RMSU=  6.29D-06    CP:  9.58D-01  1.59D+00  6.23D-01  7.75D-01  6.79D-01
                    CP:  8.76D-01  7.63D-01
 E= -1328.95979613356     Delta-E=       -0.000020532299 Rises=F Damp=F
 DIIS: error= 7.25D-05 at cycle   8 NSaved=   8.
 NSaved= 8 IEnMin= 8 EnMin= -1328.95979613356     IErMin= 8 ErrMin= 7.25D-05
 ErrMax= 7.25D-05  0.00D+00 EMaxC= 1.00D-01 BMatC= 2.15D-06 BMatP= 2.15D-05
 IDIUse=1 WtCom= 1.00D+00 WtEn= 0.00D+00
 Coeff-Com: -0.770D-03 0.666D-03-0.325D-02-0.157D-02 0.200D-01 0.995D-01
 Coeff-Com:  0.293D+00 0.592D+00
 Coeff:     -0.770D-03 0.666D-03-0.325D-02-0.157D-02 0.200D-01 0.995D-01
 Coeff:      0.293D+00 0.592D+00
 Gap=     0.072 Goal=   None    Shift=    0.000
 RMSDP=3.54D-06 MaxDP=3.00D-04 DE=-2.05D-05 OVMax= 9.43D-04

 Cycle   9  Pass 1  IDiag  1:
 RMSU=  2.79D-06    CP:  9.58D-01  1.59D+00  6.24D-01  7.74D-01  6.80D-01
                    CP:  8.88D-01  8.19D-01  7.92D-01
 E= -1328.95979817978     Delta-E=       -0.000002046224 Rises=F Damp=F
 DIIS: error= 2.43D-05 at cycle   9 NSaved=   9.
 NSaved= 9 IEnMin= 9 EnMin= -1328.95979817978     IErMin= 9 ErrMin= 2.43D-05
 ErrMax= 2.43D-05  0.00D+00 EMaxC= 1.00D-01 BMatC= 3.27D-07 BMatP= 2.15D-06
 IDIUse=1 WtCom= 1.00D+00 WtEn= 0.00D+00
 Coeff-Com: -0.129D-03 0.196D-03-0.117D-02-0.367D-02-0.133D-02 0.615D-02
 Coeff-Com:  0.670D-01 0.318D+00 0.615D+00
 Coeff:     -0.129D-03 0.196D-03-0.117D-02-0.367D-02-0.133D-02 0.615D-02
 Coeff:      0.670D-01 0.318D+00 0.615D+00
 Gap=     0.072 Goal=   None    Shift=    0.000
 RMSDP=1.21D-06 MaxDP=1.13D-04 DE=-2.05D-06 OVMax= 3.13D-04

 Cycle  10  Pass 1  IDiag  1:
 RMSU=  7.71D-07    CP:  9.58D-01  1.59D+00  6.24D-01  7.74D-01  6.82D-01
                    CP:  8.94D-01  8.33D-01  8.76D-01  8.40D-01
 E= -1328.95979851352     Delta-E=       -0.000000333744 Rises=F Damp=F
 DIIS: error= 4.47D-06 at cycle  10 NSaved=  10.
 NSaved=10 IEnMin=10 EnMin= -1328.95979851352     IErMin=10 ErrMin= 4.47D-06
 ErrMax= 4.47D-06  0.00D+00 EMaxC= 1.00D-01 BMatC= 3.24D-08 BMatP= 3.27D-07
 IDIUse=1 WtCom= 1.00D+00 WtEn= 0.00D+00
 Coeff-Com:  0.453D-05 0.234D-04-0.364D-03-0.177D-02-0.247D-02-0.723D-02
 Coeff-Com:  0.376D-02 0.105D+00 0.306D+00 0.597D+00
 Coeff:      0.453D-05 0.234D-04-0.364D-03-0.177D-02-0.247D-02-0.723D-02
 Coeff:      0.376D-02 0.105D+00 0.306D+00 0.597D+00
 Gap=     0.072 Goal=   None    Shift=    0.000
 RMSDP=4.42D-07 MaxDP=3.65D-05 DE=-3.34D-07 OVMax= 1.04D-04

 Cycle  11  Pass 1  IDiag  1:
 RMSU=  2.96D-07    CP:  9.58D-01  1.59D+00  6.24D-01  7.74D-01  6.82D-01
                    CP:  8.96D-01  8.41D-01  8.97D-01  8.67D-01  7.43D-01
 E= -1328.95979854585     Delta-E=       -0.000000032324 Rises=F Damp=F
 DIIS: error= 2.20D-06 at cycle  11 NSaved=  11.
 NSaved=11 IEnMin=11 EnMin= -1328.95979854585     IErMin=11 ErrMin= 2.20D-06
 ErrMax= 2.20D-06  0.00D+00 EMaxC= 1.00D-01 BMatC= 5.10D-09 BMatP= 3.24D-08
 IDIUse=1 WtCom= 1.00D+00 WtEn= 0.00D+00
 Coeff-Com: -0.785D-07 0.164D-04 0.658D-05-0.253D-03-0.962D-03-0.488D-02
 Coeff-Com: -0.992D-02 0.379D-03 0.483D-01 0.319D+00 0.648D+00
 Coeff:     -0.785D-07 0.164D-04 0.658D-05-0.253D-03-0.962D-03-0.488D-02
 Coeff:     -0.992D-02 0.379D-03 0.483D-01 0.319D+00 0.648D+00
 Gap=     0.072 Goal=   None    Shift=    0.000
 RMSDP=1.66D-07 MaxDP=1.26D-05 DE=-3.23D-08 OVMax= 4.85D-05

 Cycle  12  Pass 1  IDiag  1:
 RMSU=  8.54D-08    CP:  9.58D-01  1.59D+00  6.24D-01  7.74D-01  6.82D-01
                    CP:  8.97D-01  8.42D-01  9.03D-01  8.86D-01  8.37D-01
                    CP:  7.18D-01
 E= -1328.95979855146     Delta-E=       -0.000000005615 Rises=F Damp=F
 DIIS: error= 6.41D-07 at cycle  12 NSaved=  12.
 NSaved=12 IEnMin=12 EnMin= -1328.95979855146     IErMin=12 ErrMin= 6.41D-07
 ErrMax= 6.41D-07  0.00D+00 EMaxC= 1.00D-01 BMatC= 5.04D-10 BMatP= 5.10D-09
 IDIUse=1 WtCom= 1.00D+00 WtEn= 0.00D+00
 Coeff-Com:  0.122D-06 0.589D-05 0.256D-04-0.143D-04-0.337D-03-0.211D-02
 Coeff-Com: -0.565D-02-0.726D-02 0.436D-02 0.131D+00 0.348D+00 0.532D+00
 Coeff:      0.122D-06 0.589D-05 0.256D-04-0.143D-04-0.337D-03-0.211D-02
 Coeff:     -0.565D-02-0.726D-02 0.436D-02 0.131D+00 0.348D+00 0.532D+00
 Gap=     0.072 Goal=   None    Shift=    0.000
 RMSDP=4.48D-08 MaxDP=3.50D-06 DE=-5.62D-09 OVMax= 8.19D-06

 Cycle  13  Pass 1  IDiag  1:
 RMSU=  3.09D-08    CP:  9.58D-01  1.59D+00  6.24D-01  7.74D-01  6.82D-01
                    CP:  8.97D-01  8.42D-01  9.04D-01  8.87D-01  8.45D-01
                    CP:  7.78D-01  7.24D-01
 E= -1328.95979855205     Delta-E=       -0.000000000583 Rises=F Damp=F
 DIIS: error= 1.37D-07 at cycle  13 NSaved=  13.
 NSaved=13 IEnMin=13 EnMin= -1328.95979855205     IErMin=13 ErrMin= 1.37D-07
 ErrMax= 1.37D-07  0.00D+00 EMaxC= 1.00D-01 BMatC= 3.89D-11 BMatP= 5.04D-10
 IDIUse=1 WtCom= 1.00D+00 WtEn= 0.00D+00
 Coeff-Com:  0.657D-06-0.465D-06 0.109D-04 0.250D-04-0.221D-04-0.297D-03
 Coeff-Com: -0.122D-02-0.339D-02-0.448D-02 0.175D-01 0.701D-01 0.251D+00
 Coeff-Com:  0.671D+00
 Coeff:      0.657D-06-0.465D-06 0.109D-04 0.250D-04-0.221D-04-0.297D-03
 Coeff:     -0.122D-02-0.339D-02-0.448D-02 0.175D-01 0.701D-01 0.251D+00
 Coeff:      0.671D+00
 Gap=     0.072 Goal=   None    Shift=    0.000
 RMSDP=1.20D-08 MaxDP=9.32D-07 DE=-5.83D-10 OVMax= 2.59D-06

 Cycle  14  Pass 1  IDiag  1:
 RMSU=  8.04D-09    CP:  9.58D-01  1.59D+00  6.24D-01  7.74D-01  6.82D-01
                    CP:  8.97D-01  8.42D-01  9.04D-01  8.88D-01  8.47D-01
                    CP:  7.84D-01  7.83D-01  7.97D-01
 E= -1328.95979855204     Delta-E=        0.000000000005 Rises=F Damp=F
 DIIS: error= 6.94D-08 at cycle  14 NSaved=  14.
 NSaved=14 IEnMin=13 EnMin= -1328.95979855205     IErMin=14 ErrMin= 6.94D-08
 ErrMax= 6.94D-08  0.00D+00 EMaxC= 1.00D-01 BMatC= 3.50D-12 BMatP= 3.89D-11
 IDIUse=1 WtCom= 1.00D+00 WtEn= 0.00D+00
 Coeff-Com:  0.922D-06-0.139D-05 0.480D-05 0.128D-04 0.881D-05-0.240D-04
 Coeff-Com: -0.277D-03-0.129D-02-0.234D-02 0.137D-02 0.132D-01 0.905D-01
 Coeff-Com:  0.308D+00 0.591D+00
 Coeff:      0.922D-06-0.139D-05 0.480D-05 0.128D-04 0.881D-05-0.240D-04
 Coeff:     -0.277D-03-0.129D-02-0.234D-02 0.137D-02 0.132D-01 0.905D-01
 Coeff:      0.308D+00 0.591D+00
 Gap=     0.072 Goal=   None    Shift=    0.000
 RMSDP=4.05D-09 MaxDP=3.32D-07 DE= 4.55D-12 OVMax= 7.41D-07

 Error on total polarization charges =  0.04622
 SCF Done:  E(RB3LYP) =  -1328.95979855     A.U. after   14 cycles
            NFock= 14  Conv=0.40D-08     -V/T= 2.0089
 KE= 1.317203728887D+03 PE=-9.444772988006D+03 EE= 3.617818643332D+03
 Leave Link  502 at Thu Dec 20 17:40:33 2018, MaxMem=  1342177280 cpu:            2511.7 elap:             161.4
 (Enter /gpfs/apps/hpc/Apps/Restricted/Gaussian/Rev_A.03/g16/l601.exe)
 Copying SCF densities to generalized density rwf, IOpCl= 0 IROHF=0.

 **********************************************************************

            Population analysis using the SCF density.

 **********************************************************************

 Alpha  occ. eigenvalues --  -19.07398 -14.40768 -14.37298 -14.32377 -10.27895
 Alpha  occ. eigenvalues --  -10.25774 -10.23847 -10.22990 -10.22672 -10.21920
 Alpha  occ. eigenvalues --  -10.21296 -10.20717 -10.20468 -10.19529 -10.18840
 Alpha  occ. eigenvalues --  -10.18807 -10.18150 -10.18115 -10.17802 -10.17730
 Alpha  occ. eigenvalues --  -10.17257 -10.16840 -10.16486 -10.16107 -10.15775
 Alpha  occ. eigenvalues --  -10.15422 -10.15203 -10.15074 -10.15007 -10.14935
 Alpha  occ. eigenvalues --  -10.14271 -10.14136  -1.01990  -0.99156  -0.97434
 Alpha  occ. eigenvalues --   -0.88070  -0.86090  -0.83687  -0.83581  -0.80901
 Alpha  occ. eigenvalues --   -0.79042  -0.78319  -0.75415  -0.74745  -0.74370
 Alpha  occ. eigenvalues --   -0.71727  -0.68726  -0.68173  -0.67945  -0.67548
 Alpha  occ. eigenvalues --   -0.67445  -0.66635  -0.63865  -0.62613  -0.61668
 Alpha  occ. eigenvalues --   -0.61386  -0.60312  -0.58049  -0.57777  -0.56524
 Alpha  occ. eigenvalues --   -0.55357  -0.53776  -0.51932  -0.50877  -0.49651
 Alpha  occ. eigenvalues --   -0.49418  -0.47492  -0.47011  -0.46217  -0.45392
 Alpha  occ. eigenvalues --   -0.45151  -0.44658  -0.44482  -0.43973  -0.43689
 Alpha  occ. eigenvalues --   -0.43198  -0.42627  -0.42600  -0.42180  -0.42159
 Alpha  occ. eigenvalues --   -0.41912  -0.41273  -0.41162  -0.40080  -0.39562
 Alpha  occ. eigenvalues --   -0.38910  -0.38448  -0.37768  -0.37584  -0.37338
 Alpha  occ. eigenvalues --   -0.36805  -0.36566  -0.35905  -0.35487  -0.35343
 Alpha  occ. eigenvalues --   -0.35187  -0.35104  -0.34755  -0.34413  -0.33705
 Alpha  occ. eigenvalues --   -0.32570  -0.32416  -0.31680  -0.31554  -0.31348
 Alpha  occ. eigenvalues --   -0.30813  -0.30300  -0.30041  -0.29899  -0.29325
 Alpha  occ. eigenvalues --   -0.28648  -0.28448  -0.25738  -0.24210  -0.21214
 Alpha  occ. eigenvalues --   -0.20995  -0.15772
 Alpha virt. eigenvalues --   -0.08591  -0.01412   0.01434   0.03488   0.04459
 Alpha virt. eigenvalues --    0.07718   0.08559   0.08657   0.09530   0.10469
 Alpha virt. eigenvalues --    0.10917   0.11422   0.12941   0.13285   0.14181
 Alpha virt. eigenvalues --    0.14542   0.14916   0.15247   0.15461   0.15675
 Alpha virt. eigenvalues --    0.15980   0.16261   0.16399   0.16892   0.17137
 Alpha virt. eigenvalues --    0.17394   0.17524   0.18096   0.18133   0.18310
 Alpha virt. eigenvalues --    0.18365   0.18461   0.18578   0.18785   0.19221
 Alpha virt. eigenvalues --    0.19624   0.19839   0.20079   0.20453   0.20754
 Alpha virt. eigenvalues --    0.21000   0.21153   0.21482   0.22105   0.22675
 Alpha virt. eigenvalues --    0.23296   0.23473   0.23540   0.23919   0.24644
 Alpha virt. eigenvalues --    0.24789   0.24939   0.25420   0.26316   0.26912
 Alpha virt. eigenvalues --    0.27416   0.28046   0.28443   0.28595   0.29677
 Alpha virt. eigenvalues --    0.29935   0.30223   0.30684   0.30935   0.31404
 Alpha virt. eigenvalues --    0.32377   0.33695   0.36381   0.37636   0.38152
 Alpha virt. eigenvalues --    0.39416   0.39802   0.40942   0.42546   0.44489
 Alpha virt. eigenvalues --    0.46624   0.47816   0.48346   0.49630   0.50182
 Alpha virt. eigenvalues --    0.50379   0.50897   0.51026   0.51068   0.51478
 Alpha virt. eigenvalues --    0.52309   0.52831   0.53037   0.53139   0.53274
 Alpha virt. eigenvalues --    0.53507   0.54169   0.54533   0.55151   0.55774
 Alpha virt. eigenvalues --    0.56642   0.56761   0.57479   0.57574   0.57899
 Alpha virt. eigenvalues --    0.58228   0.58683   0.59580   0.60277   0.60703
 Alpha virt. eigenvalues --    0.61226   0.61822   0.62126   0.62543   0.62884
 Alpha virt. eigenvalues --    0.63243   0.63443   0.63550   0.63872   0.64558
 Alpha virt. eigenvalues --    0.65397   0.65451   0.65506   0.66081   0.66611
 Alpha virt. eigenvalues --    0.67454   0.67652   0.69068   0.69568   0.70085
 Alpha virt. eigenvalues --    0.70776   0.71267   0.71654   0.71873   0.72666
 Alpha virt. eigenvalues --    0.74667   0.75406   0.76218   0.76634   0.76708
 Alpha virt. eigenvalues --    0.76754   0.77167   0.77429   0.77628   0.78101
 Alpha virt. eigenvalues --    0.79121   0.79390   0.80006   0.81026   0.81141
 Alpha virt. eigenvalues --    0.81583   0.81718   0.82631   0.83286   0.83479
 Alpha virt. eigenvalues --    0.84210   0.84448   0.84726   0.85506   0.85719
 Alpha virt. eigenvalues --    0.86477   0.86815   0.87075   0.87517   0.87726
 Alpha virt. eigenvalues --    0.88156   0.88629   0.88813   0.89205   0.89542
 Alpha virt. eigenvalues --    0.89887   0.90138   0.90647   0.90956   0.91032
 Alpha virt. eigenvalues --    0.91253   0.91562   0.91725   0.91956   0.92125
 Alpha virt. eigenvalues --    0.92472   0.93062   0.94127   0.94267   0.94787
 Alpha virt. eigenvalues --    0.95001   0.95138   0.95586   0.96299   0.96408
 Alpha virt. eigenvalues --    0.96463   0.96958   0.97279   0.99353   0.99715
 Alpha virt. eigenvalues --    1.00203   1.00826   1.01252   1.02613   1.03555
[...]
   D169      -3.09023   0.00000   0.00000   0.00001   0.00001  -3.09022
   D170       1.05303  -0.00001   0.00000  -0.00003  -0.00003   1.05299
   D171      -0.98125   0.00002   0.00000   0.00007   0.00007  -0.98118
   D172       0.97138   0.00004   0.00000   0.00014   0.00014   0.97151
   D173       3.11088   0.00009   0.00000   0.00031   0.00031   3.11119
   D174      -1.13708   0.00004   0.00000   0.00012   0.00012  -1.13696
   D175      -1.12735  -0.00008   0.00000  -0.00027  -0.00027  -1.12761
   D176       1.01216  -0.00003   0.00000  -0.00009  -0.00009   1.01207
   D177       3.04738  -0.00008   0.00000  -0.00028  -0.00028   3.04710
   D178       3.09189  -0.00003   0.00000  -0.00009  -0.00009   3.09179
   D179      -1.05180   0.00002   0.00000   0.00008   0.00008  -1.05171
   D180       0.98343  -0.00003   0.00000  -0.00011  -0.00011   0.98332
   D181       0.96624  -0.00006   0.00000  -0.00020  -0.00020   0.96604
   D182       3.10492  -0.00005   0.00000  -0.00017  -0.00017   3.10474
   D183      -1.13433  -0.00004   0.00000  -0.00012  -0.00012  -1.13446
   D184       3.09683   0.00001   0.00000   0.00002   0.00002   3.09685
   D185      -1.04768   0.00001   0.00000   0.00005   0.00005  -1.04763
   D186       0.99626   0.00003   0.00000   0.00010   0.00010   0.99635
   D187      -1.13957  -0.00001   0.00000  -0.00004  -0.00004  -1.13962
   D188       0.99910  -0.00000   0.00000  -0.00001  -0.00001   0.99909
   D189       3.04304   0.00001   0.00000   0.00004   0.00004   3.04307
   D190      -0.96816   0.00006   0.00000   0.00022   0.00022  -0.96794
   D191      -3.10722   0.00004   0.00000   0.00015   0.00015  -3.10707
   D192       1.13203   0.00004   0.00000   0.00014   0.00014   1.13217
   D193      -3.09780   0.00004   0.00000   0.00013   0.00013  -3.09766
   D194       1.04633   0.00002   0.00000   0.00006   0.00006   1.04639
   D195      -0.99761   0.00001   0.00000   0.00005   0.00005  -0.99756
   D196       1.13654   0.00003   0.00000   0.00011   0.00011   1.13665
   D197      -1.00252   0.00001   0.00000   0.00004   0.00004  -1.00248
   D198      -3.04646   0.00001   0.00000   0.00003   0.00003  -3.04643
         Item               Value     Threshold  Converged?
 Maximum Force            0.014629     0.000015     NO 
 RMS     Force            0.001537     0.000010     NO 
 Maximum Displacement     0.494650     0.000060     NO 
 RMS     Displacement     0.119791     0.000040     NO 
 Predicted change in Energy=-5.193171D-03
 GradGradGradGradGradGradGradGradGradGradGradGradGradGradGradGradGradGrad

 Leave Link  103 at Thu Dec 20 19:14:08 2018, MaxMem=  1342177280 cpu:               2.6 elap:               0.2
 (Enter /gpfs/apps/hpc/Apps/Restricted/Gaussian/Rev_A.03/g16/l202.exe)
 Symmetry turned off by external request.
 Stoichiometry    C28H37N3O
 Framework group  C1[X(C28H37N3O)]
 Deg. of freedom   201
 Full point group                 C1      NOp   1
                          Input orientation:                          
 ---------------------------------------------------------------------
 Center     Atomic      Atomic             Coordinates (Angstroms)
 Number     Number       Type             X           Y           Z
 ---------------------------------------------------------------------
      1          6           0       -0.540628    2.787407    0.328073
      2          6           0       -1.940118    3.020935    0.219081
      3          6           0       -2.458013    4.300543    0.088529
      4          6           0       -1.549645    5.378856    0.067256
      5          6           0       -0.178074    5.177188    0.161508
      6          6           0        0.363744    3.875681    0.288321
      7          6           0       -1.493940    0.845346    0.391857
      8          1           0       -3.524201    4.471716    0.003434
      9          1           0       -1.934232    6.386573   -0.032237
     10          1           0        0.498700    6.023290    0.129544
     11          7           0       -2.499391    1.762502    0.256859
     12          6           0       -3.088144   -1.125786    0.374436
     13          6           0       -1.735411   -0.577291    0.471095
     14          6           0       -0.616049   -1.420262    0.624148
     15          6           0       -0.738361   -2.794115    0.700219
     16          6           0       -2.042594   -3.327227    0.593463
     17          6           0       -3.190494   -2.569039    0.431344
     18          1           0        0.361306   -0.952750    0.685331
     19          1           0       -2.149676   -4.401754    0.634212
     20          6           0        0.508397   -3.670726    0.877571
     21          6           0       -4.563132   -3.235631    0.266033
     22          8           0       -4.142535   -0.381141    0.245465
     23          7           0       -0.278730    1.455183    0.435612
     24          6           0        1.767684    3.663010    0.334502
     25          1           0        2.439519    4.513654    0.283356
     26          7           0        2.293845    2.473465    0.434911
     27          6           0        3.735578    2.174168    0.416256
     28          6           0        4.321186    2.392888   -0.986464
     29          6           0        4.498930    2.974791    1.478587
     30          1           0        3.802824    1.111328    0.659708
     31          6           0        5.812040    2.037509   -1.006477
     32          1           0        4.184977    3.445544   -1.262012
     33          1           0        3.765869    1.790634   -1.710161
     34          6           0        5.988967    2.615598    1.449044
     35          1           0        4.380153    4.046352    1.279890
     36          1           0        4.068333    2.775578    2.463101
     37          6           0        6.588973    2.823830    0.054652
     38          1           0        6.221556    2.230019   -2.002048
     39          1           0        5.926494    0.962628   -0.819510
     40          1           0        6.524097    3.216206    2.189756
     41          1           0        6.108751    1.565782    1.743357
     42          1           0        7.642257    2.528497    0.048776
     43          1           0        6.555164    3.891572   -0.194703
     44          1           0       -3.462971    1.370141    0.220437
     45          1           0        1.621448    1.694484    0.477695
     46          6           0       -5.517537   -2.767181    1.383688
     47          1           0       -5.586843   -1.680587    1.395160
     48          1           0       -6.516762   -3.186127    1.226043
     49          1           0       -5.160185   -3.108154    2.359851
     50          6           0       -4.481199   -4.768705    0.337129
     51          1           0       -5.483774   -5.188201    0.216700
     52          1           0       -3.848964   -5.180434   -0.454608
     53          1           0       -4.089084   -5.108752    1.299528
     54          6           0       -5.154074   -2.861711   -1.109936
     55          1           0       -5.263610   -1.781663   -1.201171
     56          1           0       -4.500964   -3.213953   -1.913926
     57          1           0       -6.133834   -3.332156   -1.241746
     58          6           0        1.224131   -3.282982    2.186787
     59          1           0        2.122261   -3.891961    2.328776
     60          1           0        1.524238   -2.232099    2.173523
     61          1           0        0.566058   -3.434598    3.046547
     62          6           0        1.469193   -3.440164   -0.306476
     63          1           0        1.771570   -2.391794   -0.369114
     64          1           0        2.372088   -4.048570   -0.194547
     65          1           0        0.988976   -3.711558   -1.250848
     66          6           0        0.167695   -5.166956    0.937036
     67          1           0       -0.493072   -5.397926    1.776910
     68          1           0       -0.321056   -5.502525    0.018601
     69          1           0        1.085445   -5.747421    1.061330
 ---------------------------------------------------------------------
 Rotational constants (GHZ):           0.1794624           0.0751602           0.0555655
 Leave Link  202 at Thu Dec 20 19:14:08 2018, MaxMem=  1342177280 cpu:               0.1 elap:               0.0
 (Enter /gpfs/apps/hpc/Apps/Restricted/Gaussian/Rev_A.03/g16/l301.exe)
 Standard basis: 6-31G(d,p) (6D, 7F)
 Ernie: Thresh=  0.10000D-02 Tol=  0.10000D-05 Strict=F.
   665 basis functions,  1155 primitive gaussians,   665 cartesian basis functions
   117 alpha electrons      117 beta electrons
       nuclear repulsion energy      3178.2759113856 Hartrees.
 IExCor=  402 DFT=T Ex+Corr=B3LYP ExCW=0 ScaHFX=  0.200000
 ScaDFX=  0.800000  0.720000  1.000000  0.810000 ScalE2=  1.000000  1.000000
 IRadAn=      5 IRanWt=     -1 IRanGd=            0 ICorTp=0 IEmpDi=141
 NAtoms=   69 NActive=   69 NUniq=   69 SFac= 1.00D+00 NAtFMM=   60 NAOKFM=T Big=T
 Integral buffers will be    131072 words long.
 Raffenetti 2 integral format.
 Two-electron integral symmetry is turned off.
 R6Disp:  Grimme-D3(BJ) Dispersion energy=       -0.1501606383 Hartrees.
 Nuclear repulsion after empirical dispersion term =     3178.1257507474 Hartrees.
 ------------------------------------------------------------------------------
 Polarizable Continuum Model (PCM)
 =================================
 Model                : C-PCM.
 Atomic radii         : Bondi.
 Polarization charges : Total charges.
 Charge compensation  : None.
 Solution method      : On-the-fly selection.
 Cavity type          : Scaled VdW (van der Waals Surface) (Alpha=1.100).
 Cavity algorithm     : GePol (No added spheres)
                        Default sphere list used, NSphG=   69.
                        Lebedev-Laikov grids with approx.  5.0 points / Ang**2.
                        Smoothing algorithm: York/Karplus (Gamma=1.0000).
                        Polarization charges: spherical gaussians, with
                                              point-specific exponents (IZeta= 3).
                        Self-potential: point-specific (ISelfS= 7).
                        Self-field    : sphere-specific E.n sum rule (ISelfD= 2).
 1st derivatives      : Analytical E(r).r(x)/FMM algorithm (CHGder, D1EAlg=3).
                        Cavity 1st derivative terms included.
 Solvent              : Dichloromethane, Eps=   8.930000 Eps(inf)=   2.028346
 ------------------------------------------------------------------------------
 GePol: Number of generator spheres                  =      69
 GePol: Total number of spheres                      =      69
 GePol: Number of exposed spheres                    =      69 (100.00%)
 GePol: Number of points                             =    4353
 GePol: Average weight of points                     =       0.12
 GePol: Minimum weight of points                     =   0.86D-10
 GePol: Maximum weight of points                     =    0.21770
 GePol: Number of points with low weight             =     320
 GePol: Fraction of low-weight points (<1% of avg)   =       7.35%
 GePol: Cavity surface area                          =    517.956 Ang**2
 GePol: Cavity volume                                =    500.437 Ang**3
 PCM non-electrostatic energy =         0.0262183831 Hartrees.
 Nuclear repulsion after PCM non-electrostatic terms =     3178.1519691304 Hartrees.
 Leave Link  301 at Thu Dec 20 19:14:08 2018, MaxMem=  1342177280 cpu:               3.3 elap:               0.2
 (Enter /gpfs/apps/hpc/Apps/Restricted/Gaussian/Rev_A.03/g16/l302.exe)
 NPDir=0 NMtPBC=     1 NCelOv=     1 NCel=       1 NClECP=     1 NCelD=      1
         NCelK=      1 NCelE2=     1 NClLst=     1 CellRange=     0.0.
 One-electron integrals computed using PRISM.
 NBasis=   665 RedAO= T EigKep=  3.14D-04  NBF=   665
 NBsUse=   665 1.00D-06 EigRej= -1.00D+00 NBFU=   665
 Precomputing XC quadrature grid using
 IXCGrd= 4 IRadAn=           5 IRanWt=          -1 IRanGd=           0 AccXCQ= 0.00D+00.
 Generated NRdTot=       0 NPtTot=           0 NUsed=           0 NTot=          32
 NSgBfM=   654   654   654   654   654 MxSgAt=    69 MxSgA2=    69.
 Leave Link  302 at Thu Dec 20 19:14:09 2018, MaxMem=  1342177280 cpu:              21.5 elap:               1.4
 (Enter /gpfs/apps/hpc/Apps/Restricted/Gaussian/Rev_A.03/g16/l303.exe)
 DipDrv:  MaxL=1.
 Leave Link  303 at Thu Dec 20 19:14:10 2018, MaxMem=  1342177280 cpu:               1.4 elap:               0.1
 (Enter /gpfs/apps/hpc/Apps/Restricted/Gaussian/Rev_A.03/g16/l401.exe)
 Initial guess from the checkpoint file:  "cyclohexyl-monoBIP-2PT.chk"
 B after Tr=    -0.023514    0.015979   -0.001938
         Rot=    1.000000   -0.000066    0.000119    0.000562 Ang=  -0.07 deg.
 Guess basis will be translated and rotated to current coordinates.
 JPrj=2 DoOrth=T DoCkMO=T.
 Generating alternative initial guess.
 ExpMin= 1.61D-01 ExpMax= 5.48D+03 ExpMxC= 8.25D+02 IAcc=2 IRadAn=         4 AccDes= 0.00D+00
 Harris functional with IExCor=  402 and IRadAn=       4 diagonalized for initial guess.
 HarFok:  IExCor=  402 AccDes= 0.00D+00 IRadAn=         4 IDoV= 1 UseB2=F ITyADJ=14
 ICtDFT=  3500011 ScaDFX=  1.000000  1.000000  1.000000  1.000000
 FoFCou: FMM=F IPFlag=           0 FMFlag=      100000 FMFlg1=        2001
         NFxFlg=           0 DoJE=T BraDBF=F KetDBF=T FulRan=T
         wScrn=  0.000000 ICntrl=       500 IOpCl=  0 I1Cent=   200000004 NGrid=           0
         NMat0=    1 NMatS0=      1 NMatT0=    0 NMatD0=    1 NMtDS0=    0 NMtDT0=    0
 Symmetry not used in FoFCou.
 Harris En= -1329.06391715393    
 Leave Link  401 at Thu Dec 20 19:14:13 2018, MaxMem=  1342177280 cpu:              50.5 elap:               3.2
 (Enter /gpfs/apps/hpc/Apps/Restricted/Gaussian/Rev_A.03/g16/l502.exe)
 Two-electron integral symmetry not used.
 Closed shell SCF:
 Using DIIS extrapolation, IDIIS=  1040.
 NGot=  1342177280 LenX=  1341276554 LenY=  1340833664
 Requested convergence on RMS density matrix=1.00D-08 within 128 cycles.
 Requested convergence on MAX density matrix=1.00D-06.
 Requested convergence on             energy=1.00D-06.
 No special actions if energy rises.
 Fock matrices will be formed incrementally for  20 cycles.

 Cycle   1  Pass 1  IDiag  1:
 FoFJK:  IHMeth= 1 ICntrl=       0 DoSepK=F KAlg= 0 I1Cent=           0 FoldK=F
 IRaf= 780000000 NMat=       1 IRICut=       1 DoRegI=T DoRafI=F ISym2E= 0 IDoP0=0 IntGTp=1.
 FoFCou: FMM=T IPFlag=           0 FMFlag=      100000 FMFlg1=        2001
         NFxFlg=           0 DoJE=F BraDBF=F KetDBF=F FulRan=T
         wScrn=  0.000000 ICntrl=         0 IOpCl=  0 I1Cent=           0 NGrid=           0
         NMat0=    1 NMatS0=      1 NMatT0=    0 NMatD0=    1 NMtDS0=    0 NMtDT0=    0
 Symmetry not used in FoFCou.
 FMM levels:  10  Number of levels for PrismC:   9
 Inv3:  Mode=1 IEnd=    56845827.
 Iteration    1 A*A^-1 deviation from unit magnitude is 1.13D-14 for   4349.
 Iteration    1 A*A^-1 deviation from orthogonality  is 3.99D-15 for   3338   1081.
 Iteration    1 A^-1*A deviation from unit magnitude is 1.11D-14 for   4349.
 Iteration    1 A^-1*A deviation from orthogonality  is 4.80D-15 for   3420   1073.
 E= -1328.96840360693    
 DIIS: error= 2.87D-03 at cycle   1 NSaved=   1.
 NSaved= 1 IEnMin= 1 EnMin= -1328.96840360693     IErMin= 1 ErrMin= 2.87D-03
 ErrMax= 2.87D-03  0.00D+00 EMaxC= 1.00D-01 BMatC= 1.21D-02 BMatP= 1.21D-02
 IDIUse=3 WtCom= 9.71D-01 WtEn= 2.87D-02
 Coeff-Com:  0.100D+01
 Coeff-En:   0.100D+01
 Coeff:      0.100D+01
 Gap=     1.673 Goal=   None    Shift=    0.000
 GapD=    1.673 DampG=2.000 DampE=1.000 DampFc=2.0000 IDamp=-1.
 RMSDP=3.11D-04 MaxDP=2.02D-02              OVMax= 2.92D-02

 Cycle   2  Pass 1  IDiag  1:
 RMSU=  3.11D-04    CP:  1.00D+00
 E= -1328.98742101594     Delta-E=       -0.019017409011 Rises=F Damp=F
 DIIS: error= 2.13D-03 at cycle   2 NSaved=   2.
 NSaved= 2 IEnMin= 2 EnMin= -1328.98742101594     IErMin= 2 ErrMin= 2.13D-03
 ErrMax= 2.13D-03  0.00D+00 EMaxC= 1.00D-01 BMatC= 8.48D-04 BMatP= 1.21D-02
 IDIUse=3 WtCom= 9.79D-01 WtEn= 2.13D-02
 Coeff-Com:  0.388D-01 0.961D+00
 Coeff-En:   0.000D+00 0.100D+01
 Coeff:      0.380D-01 0.962D+00
 Gap=     0.085 Goal=   None    Shift=    0.000
 RMSDP=1.26D-04 MaxDP=1.72D-02 DE=-1.90D-02 OVMax= 2.65D-02

 Cycle   3  Pass 1  IDiag  1:
 RMSU=  1.23D-04    CP:  9.99D-01  9.12D-01
 E= -1328.98605481679     Delta-E=        0.001366199147 Rises=F Damp=F
 DIIS: error= 4.44D-03 at cycle   3 NSaved=   3.
 NSaved= 3 IEnMin= 2 EnMin= -1328.98742101594     IErMin= 2 ErrMin= 2.13D-03
 ErrMax= 4.44D-03  0.00D+00 EMaxC= 1.00D-01 BMatC= 2.64D-03 BMatP= 8.48D-04
 IDIUse=3 WtCom= 1.31D-01 WtEn= 8.69D-01
 Coeff-Com: -0.429D-01 0.668D+00 0.375D+00
 Coeff-En:   0.000D+00 0.707D+00 0.293D+00
 Coeff:     -0.560D-02 0.702D+00 0.304D+00
 Gap=     0.083 Goal=   None    Shift=    0.000
 RMSDP=7.23D-05 MaxDP=1.03D-02 DE= 1.37D-03 OVMax= 1.61D-02

 Cycle   4  Pass 1  IDiag  1:
 RMSU=  1.56D-05    CP:  1.00D+00  9.96D-01  4.67D-01
 E= -1328.98813411455     Delta-E=       -0.002079297758 Rises=F Damp=F
 DIIS: error= 4.99D-04 at cycle   4 NSaved=   4.
 NSaved= 4 IEnMin= 4 EnMin= -1328.98813411455     IErMin= 4 ErrMin= 4.99D-04
 ErrMax= 4.99D-04  0.00D+00 EMaxC= 1.00D-01 BMatC= 5.06D-05 BMatP= 8.48D-04
 IDIUse=3 WtCom= 9.95D-01 WtEn= 4.99D-03
 Coeff-Com: -0.177D-01 0.218D+00 0.216D-01 0.778D+00
 Coeff-En:   0.000D+00 0.000D+00 0.000D+00 0.100D+01
 Coeff:     -0.176D-01 0.217D+00 0.215D-01 0.779D+00
 Gap=     0.082 Goal=   None    Shift=    0.000
 RMSDP=1.31D-05 MaxDP=1.62D-03 DE=-2.08D-03 OVMax= 2.73D-03

 Cycle   5  Pass 1  IDiag  1:
 RMSU=  7.60D-06    CP:  1.00D+00  1.01D+00  3.92D-01  9.53D-01
 E= -1328.98817260384     Delta-E=       -0.000038489294 Rises=F Damp=F
 DIIS: error= 1.17D-04 at cycle   5 NSaved=   5.
 NSaved= 5 IEnMin= 5 EnMin= -1328.98817260384     IErMin= 5 ErrMin= 1.17D-04
 ErrMax= 1.17D-04  0.00D+00 EMaxC= 1.00D-01 BMatC= 5.21D-06 BMatP= 5.06D-05
 IDIUse=3 WtCom= 9.99D-01 WtEn= 1.17D-03
 Coeff-Com: -0.631D-02 0.650D-01-0.266D-01 0.493D+00 0.475D+00
 Coeff-En:   0.000D+00 0.000D+00 0.000D+00 0.000D+00 0.100D+01
 Coeff:     -0.630D-02 0.649D-01-0.266D-01 0.492D+00 0.475D+00
 Gap=     0.082 Goal=   None    Shift=    0.000
 RMSDP=3.80D-06 MaxDP=4.27D-04 DE=-3.85D-05 OVMax= 6.98D-04

 Cycle   6  Pass 1  IDiag  1:
 RMSU=  2.04D-06    CP:  1.00D+00  1.01D+00  3.92D-01  1.04D+00  6.26D-01
 E= -1328.98817727741     Delta-E=       -0.000004673564 Rises=F Damp=F
 DIIS: error= 1.20D-05 at cycle   6 NSaved=   6.
 NSaved= 6 IEnMin= 6 EnMin= -1328.98817727741     IErMin= 6 ErrMin= 1.20D-05
 ErrMax= 1.20D-05  0.00D+00 EMaxC= 1.00D-01 BMatC= 9.29D-08 BMatP= 5.21D-06
 IDIUse=1 WtCom= 1.00D+00 WtEn= 0.00D+00
 Coeff-Com: -0.111D-02 0.826D-02-0.115D-01 0.130D+00 0.175D+00 0.699D+00
 Coeff:     -0.111D-02 0.826D-02-0.115D-01 0.130D+00 0.175D+00 0.699D+00
 Gap=     0.082 Goal=   None    Shift=    0.000
 RMSDP=8.49D-07 MaxDP=6.15D-05 DE=-4.67D-06 OVMax= 1.54D-04

 Cycle   7  Pass 1  IDiag  1:
 RMSU=  6.83D-07    CP:  1.00D+00  1.01D+00  3.93D-01  1.05D+00  6.50D-01
                    CP:  7.82D-01
 E= -1328.98817733457     Delta-E=       -0.000000057163 Rises=F Damp=F
 DIIS: error= 6.15D-06 at cycle   7 NSaved=   7.
 NSaved= 7 IEnMin= 7 EnMin= -1328.98817733457     IErMin= 7 ErrMin= 6.15D-06
 ErrMax= 6.15D-06  0.00D+00 EMaxC= 1.00D-01 BMatC= 3.69D-08 BMatP= 9.29D-08
 IDIUse=1 WtCom= 1.00D+00 WtEn= 0.00D+00
 Coeff-Com:  0.113D-03-0.325D-02-0.375D-02 0.186D-01 0.481D-01 0.429D+00
 Coeff-Com:  0.511D+00
 Coeff:      0.113D-03-0.325D-02-0.375D-02 0.186D-01 0.481D-01 0.429D+00
 Coeff:      0.511D+00
 Gap=     0.082 Goal=   None    Shift=    0.000
 RMSDP=3.81D-07 MaxDP=3.66D-05 DE=-5.72D-08 OVMax= 8.30D-05

 Cycle   8  Pass 1  IDiag  1:
 RMSU=  1.87D-07    CP:  1.00D+00  1.01D+00  3.93D-01  1.05D+00  6.50D-01
                    CP:  8.36D-01  5.49D-01
