 Entering Gaussian System, Link 0=g16
 Initial command:
 /gpfs/apps/hpc/Apps/Restricted/Gaussian/Rev_A.03/g16/l1.exe "/gpfs/scratch60/fas/hammes_schiffer/jg2487/c44n01/Gau-90489.inp" -scrdir="/gpfs/scratch60/fas/hammes_schiffer/jg2487/c44n01/"
 Entering Link 1 = /gpfs/apps/hpc/Apps/Restricted/Gaussian/Rev_A.03/g16/l1.exe PID=     90490.
  
 Copyright (c) 1988,1990,1992,1993,1995,1998,2003,2009,2016,
            Gaussian, Inc.  All Rights Reserved.
  
 This is part of the Gaussian(R) 16 program.  It is based on
 the Gaussian(R) 09 system (copyright 2009, Gaussian, Inc.),
 the Gaussian(R) 03 system (copyright 2003, Gaussian, Inc.),
 the Gaussian(R) 98 system (copyright 1998, Gaussian, Inc.),
 the Gaussian(R) 94 system (copyright 1995, Gaussian, Inc.),
 the Gaussian 92(TM) system (copyright 1992, Gaussian, Inc.),
 the Gaussian 90(TM) system (copyright 1990, Gaussian, Inc.),
 the Gaussian 88(TM) system (copyright 1988, Gaussian, Inc.),
 the Gaussian 86(TM) system (copyright 1986, Carnegie Mellon
 University), and the Gaussian 82(TM) system (copyright 1983,
 Carnegie Mellon University). Gaussian is a federally registered
 trademark of Gaussian, Inc.
  
 This software contains proprietary and confidential information,
 including trade secrets, belonging to Gaussian, Inc.
  
 This software is provided under written license and may be
 used, copied, transmitted, or stored only in accord with that
 written license.
  
 The following legend is applicable only to US Government
 contracts under FAR:
  
                    RESTRICTED RIGHTS LEGEND
  
 Use, reproduction and disclosure by the US Government is
 subject to restrictions as set forth in subparagraphs (a)
 and (c) of the Commercial Computer Software - Restricted
 Rights clause in FAR 52.227-19.
  
 Gaussian, Inc.
 340 Quinnipiac St., Bldg. 40, Wallingford CT 06492
  
  
 ---------------------------------------------------------------
 Warning -- This program may not be used in any manner that
 competes with the business of Gaussian, Inc. or will provide
 assistance to any competitor of Gaussian, Inc.  The licensee
 of this program is prohibited from giving any competitor of
 Gaussian, Inc. access to this program.  By using this program,
 the user acknowledges that Gaussian, Inc. is engaged in the
 business of creating and licensing software in the field of
 computational chemistry and represents and warrants to the
 licensee that it is not a competitor of Gaussian, Inc. and that
 it will not use this program in any manner prohibited above.
 ---------------------------------------------------------------
  

 Cite this work as:
 Gaussian 16, Revision A.03,
 M. J. Frisch, G. W. Trucks, H. B. Schlegel, G. E. Scuseria, 
 M. A. Robb, J. R. Cheeseman, G. Scalmani, V. Barone, 
 G. A. Petersson, H. Nakatsuji, X. Li, M. Caricato, A. V. Marenich, 
 J. Bloino, B. G. Janesko, R. Gomperts, B. Mennucci, H. P. Hratchian, 
 J. V. Ortiz, A. F. Izmaylov, J. L. Sonnenberg, D. Williams-Young, 
 F. Ding, F. Lipparini, F. Egidi, J. Goings, B. Peng, A. Petrone, 
 T. Henderson, D. Ranasinghe, V. G. Zakrzewski, J. Gao, N. Rega, 
 G. Zheng, W. Liang, M. Hada, M. Ehara, K. Toyota, R. Fukuda, 
 J. Hasegawa, M. Ishida, T. Nakajima, Y. Honda, O. Kitao, H. Nakai, 
 T. Vreven, K. Throssell, J. A. Montgomery, Jr., J. E. Peralta, 
 F. Ogliaro, M. J. Bearpark, J. J. Heyd, E. N. Brothers, K. N. Kudin, 
 V. N. Staroverov, T. A. Keith, R. Kobayashi, J. Normand, 
 K. Raghavachari, A. P. Rendell, J. C. Burant, S. S. Iyengar, 
 J. Tomasi, M. Cossi, J. M. Millam, M. Klene, C. Adamo, R. Cammi, 
 J. W. Ochterski, R. L. Martin, K. Morokuma, O. Farkas, 
 J. B. Foresman, and D. J. Fox, Gaussian, Inc., Wallingford CT, 2016.
 
 ******************************************
 Gaussian 16:  ES64L-G16RevA.03 25-Dec-2016
                17-Dec-2018 
 ******************************************
 %chk=cyclohexyl-monoBIP-2PT.chk
 %mem=10GB
 %nprocshared=16
 Will use up to   16 processors via shared memory.
 ----------------------------------------------------------------------
 #p opt=tight freq=internalmodes b3lyp/6-31g(d,p) scrf=(cpcm,solvent=di
 chloromethane,read) nosymm empiricaldispersion=gd3bj int=grid=ultrafin
 e
 ----------------------------------------------------------------------
 1/7=10,18=20,19=15,26=6,38=1,40=2/1,3;
 2/9=110,12=2,15=1,17=6,18=5,40=1/2;
 3/5=1,6=6,7=101,11=2,25=1,30=1,70=2103,71=1,72=9,74=-5,75=-5,124=41/1,2,3;
 4//1;
 5/5=2,38=5,53=9/2;
 6/7=2,8=2,9=2,10=2,28=1/1;
 7/30=1/1,2,3,16;
 1/7=10,18=20,19=15,26=6/3(2);
 2/9=110,15=1/2;
 99//99;
 2/9=110,15=1/2;
 3/5=1,6=6,7=101,11=2,25=1,30=1,70=2105,71=1,72=9,74=-5,75=-5,124=41/1,2,3;
 4/5=5,16=3,69=1/1;
 5/5=2,38=5,53=9/2;
 7/30=1/1,2,3,16;
 1/7=10,18=20,19=15,26=6/3(-5);
 2/9=110,15=1/2;
 6/7=2,8=2,9=2,10=2,19=2,28=1/1;
 99/9=1/99;
 Leave Link    1 at Mon Dec 17 09:59:35 2018, MaxMem=  1342177280 cpu:               7.5 elap:               0.5
 (Enter /gpfs/apps/hpc/Apps/Restricted/Gaussian/Rev_A.03/g16/l101.exe)
 ----------------------------------------------------------------------
 cyclohexylimine monoBIP neutral, with both protons transferred optimiz
 ation
 ----------------------------------------------------------------------
 Symbolic Z-matrix:
 Charge =  0 Multiplicity = 1
 C                    -0.52249   2.72092   0.33407 
 C                    -1.92037   2.94681   0.27176 
 C                    -2.46318   4.22888   0.21239 
 C                    -1.5704    5.30478   0.22296 
 C                    -0.18611   5.1094    0.28415 
 C                     0.37071   3.81949   0.33404 
 C                    -1.45275   0.78026   0.35285 
 H                    -3.5328    4.38713   0.16009 
 H                    -1.96041   6.31388   0.18208 
 H                     0.47728   5.96643   0.29019 
 N                    -2.47101   1.68795   0.28383 
 C                    -3.03159  -1.19658   0.29644 
 C                    -1.67158  -0.65247   0.39144 
 C                    -0.59527  -1.51004   0.52076 
 C                    -0.76828  -2.90789   0.57347 
 C                    -2.07158  -3.44604   0.47261 
 C                    -3.1862   -2.64923   0.33507 
 H                     0.40258  -1.09378   0.59202 
 H                    -2.19169  -4.52362   0.51264 
 C                     0.42057  -3.80108   0.75021 
 H                     1.15243  -3.6371   -0.04659 
 H                     0.92753  -3.57593   1.69417 
 H                     0.13403  -4.85271   0.75157 
 C                    -4.56946  -3.20657   0.23426 
 H                    -5.21068  -2.7883    1.01511 
 H                    -5.02937  -2.9368   -0.72114 
 H                    -4.55888  -4.29253   0.32609 
 O                    -4.04375  -0.45717   0.18862 
 N                    -0.25165   1.38069   0.38343 
 C                     1.78916   3.64288   0.36613 
 H                     2.42742   4.51992   0.36827 
 N                     2.35762   2.47525   0.39038 
 C                     3.81496   2.23979   0.40237 
 C                     4.44186   2.62113  -0.94626 
 C                     4.49321   2.9728    1.56535 
 H                     3.92241   1.16341   0.55083 
 C                     5.94769   2.33168  -0.92899 
 H                     4.26968   3.68929  -1.12204 
 H                     3.94744   2.07107  -1.75099 
 C                     5.99683   2.6741    1.57442 
 H                     4.34164   4.05163   1.4472 
 H                     4.02544   2.67642   2.50739 
 C                     6.64425   3.04413   0.23518 
 H                     6.39102   2.6285   -1.88348 
 H                     6.09972   1.24989  -0.83273 
 H                     6.46974   3.21879   2.3961 
 H                     6.15056   1.60592   1.76974 
 H                     7.70846   2.79267   0.24793 
 H                     6.57367   4.12915   0.08952 
 H                    -3.44181   1.38842   0.24228 
 H                     1.72612   1.6651    0.38123 
 
 ITRead=  0  0  0  0  0  0  0  0  0  0  0  0  0  0  0  0  0  0  0  0
 ITRead=  0  0  0  0  0  0  0  0  0  0  0  0  0  0  0  0  0  0  0  0
 ITRead=  0  0  0  0  0  0  0  0  0  0  0
 MicOpt= -1 -1 -1 -1 -1 -1 -1 -1 -1 -1 -1 -1 -1 -1 -1 -1 -1 -1 -1 -1
 MicOpt= -1 -1 -1 -1 -1 -1 -1 -1 -1 -1 -1 -1 -1 -1 -1 -1 -1 -1 -1 -1
 MicOpt= -1 -1 -1 -1 -1 -1 -1 -1 -1 -1 -1
 NAtoms=     51 NQM=       51 NQMF=       0 NMMI=      0 NMMIF=      0
                NMic=       0 NMicF=      0.
                    Isotopes and Nuclear Properties:
 (Nuclear quadrupole moments (NQMom) in fm**2, nuclear magnetic moments (NMagM)
  in nuclear magnetons)

  Atom         1           2           3           4           5           6           7           8           9          10
 IAtWgt=          12          12          12          12          12          12          12           1           1           1
 AtmWgt=  12.0000000  12.0000000  12.0000000  12.0000000  12.0000000  12.0000000  12.0000000   1.0078250   1.0078250   1.0078250
 NucSpn=           0           0           0           0           0           0           0           1           1           1
 AtZEff=  -0.0000000  -0.0000000  -0.0000000  -0.0000000  -0.0000000  -0.0000000  -0.0000000  -0.0000000  -0.0000000  -0.0000000
 NQMom=    0.0000000   0.0000000   0.0000000   0.0000000   0.0000000   0.0000000   0.0000000   0.0000000   0.0000000   0.0000000
 NMagM=    0.0000000   0.0000000   0.0000000   0.0000000   0.0000000   0.0000000   0.0000000   2.7928460   2.7928460   2.7928460
 AtZNuc=   6.0000000   6.0000000   6.0000000   6.0000000   6.0000000   6.0000000   6.0000000   1.0000000   1.0000000   1.0000000

  Atom        11          12          13          14          15          16          17          18          19          20
 IAtWgt=          14          12          12          12          12          12          12           1           1          12
 AtmWgt=  14.0030740  12.0000000  12.0000000  12.0000000  12.0000000  12.0000000  12.0000000   1.0078250   1.0078250  12.0000000
 NucSpn=           2           0           0           0           0           0           0           1           1           0
 AtZEff=  -0.0000000  -0.0000000  -0.0000000  -0.0000000  -0.0000000  -0.0000000  -0.0000000  -0.0000000  -0.0000000  -0.0000000
 NQMom=    2.0440000   0.0000000   0.0000000   0.0000000   0.0000000   0.0000000   0.0000000   0.0000000   0.0000000   0.0000000
 NMagM=    0.4037610   0.0000000   0.0000000   0.0000000   0.0000000   0.0000000   0.0000000   2.7928460   2.7928460   0.0000000
 AtZNuc=   7.0000000   6.0000000   6.0000000   6.0000000   6.0000000   6.0000000   6.0000000   1.0000000   1.0000000   6.0000000

  Atom        21          22          23          24          25          26          27          28          29          30
 IAtWgt=           1           1           1          12           1           1           1          16          14          12
 AtmWgt=   1.0078250   1.0078250   1.0078250  12.0000000   1.0078250   1.0078250   1.0078250  15.9949146  14.0030740  12.0000000
 NucSpn=           1           1           1           0           1           1           1           0           2           0
 AtZEff=  -0.0000000  -0.0000000  -0.0000000  -0.0000000  -0.0000000  -0.0000000  -0.0000000  -0.0000000  -0.0000000  -0.0000000
 NQMom=    0.0000000   0.0000000   0.0000000   0.0000000   0.0000000   0.0000000   0.0000000   0.0000000   2.0440000   0.0000000
 NMagM=    2.7928460   2.7928460   2.7928460   0.0000000   2.7928460   2.7928460   2.7928460   0.0000000   0.4037610   0.0000000
 AtZNuc=   1.0000000   1.0000000   1.0000000   6.0000000   1.0000000   1.0000000   1.0000000   8.0000000   7.0000000   6.0000000

  Atom        31          32          33          34          35          36          37          38          39          40
 IAtWgt=           1          14          12          12          12           1          12           1           1          12
 AtmWgt=   1.0078250  14.0030740  12.0000000  12.0000000  12.0000000   1.0078250  12.0000000   1.0078250   1.0078250  12.0000000
 NucSpn=           1           2           0           0           0           1           0           1           1           0
 AtZEff=  -0.0000000  -0.0000000  -0.0000000  -0.0000000  -0.0000000  -0.0000000  -0.0000000  -0.0000000  -0.0000000  -0.0000000
 NQMom=    0.0000000   2.0440000   0.0000000   0.0000000   0.0000000   0.0000000   0.0000000   0.0000000   0.0000000   0.0000000
 NMagM=    2.7928460   0.4037610   0.0000000   0.0000000   0.0000000   2.7928460   0.0000000   2.7928460   2.7928460   0.0000000
 AtZNuc=   1.0000000   7.0000000   6.0000000   6.0000000   6.0000000   1.0000000   6.0000000   1.0000000   1.0000000   6.0000000

  Atom        41          42          43          44          45          46          47          48          49          50
 IAtWgt=           1           1          12           1           1           1           1           1           1           1
 AtmWgt=   1.0078250   1.0078250  12.0000000   1.0078250   1.0078250   1.0078250   1.0078250   1.0078250   1.0078250   1.0078250
 NucSpn=           1           1           0           1           1           1           1           1           1           1
 AtZEff=  -0.0000000  -0.0000000  -0.0000000  -0.0000000  -0.0000000  -0.0000000  -0.0000000  -0.0000000  -0.0000000  -0.0000000
 NQMom=    0.0000000   0.0000000   0.0000000   0.0000000   0.0000000   0.0000000   0.0000000   0.0000000   0.0000000   0.0000000
 NMagM=    2.7928460   2.7928460   0.0000000   2.7928460   2.7928460   2.7928460   2.7928460   2.7928460   2.7928460   2.7928460
 AtZNuc=   1.0000000   1.0000000   6.0000000   1.0000000   1.0000000   1.0000000   1.0000000   1.0000000   1.0000000   1.0000000

  Atom        51
 IAtWgt=           1
 AtmWgt=   1.0078250
 NucSpn=           1
 AtZEff=  -0.0000000
 NQMom=    0.0000000
 NMagM=    2.7928460
 AtZNuc=   1.0000000
 Leave Link  101 at Mon Dec 17 09:59:35 2018, MaxMem=  1342177280 cpu:               3.8 elap:               0.3
 (Enter /gpfs/apps/hpc/Apps/Restricted/Gaussian/Rev_A.03/g16/l103.exe)

 GradGradGradGradGradGradGradGradGradGradGradGradGradGradGradGradGradGrad
 Berny optimization.
 Initialization pass.
                           ----------------------------
                           !    Initial Parameters    !
                           ! (Angstroms and Degrees)  !
 --------------------------                            --------------------------
 ! Name  Definition              Value          Derivative Info.                !
 --------------------------------------------------------------------------------
 ! R1    R(1,2)                  1.4174         estimate D2E/DX2                !
 ! R2    R(1,6)                  1.4159         estimate D2E/DX2                !
 ! R3    R(1,29)                 1.3682         estimate D2E/DX2                !
 ! R4    R(2,3)                  1.3935         estimate D2E/DX2                !
 ! R5    R(2,11)                 1.3741         estimate D2E/DX2                !
 ! R6    R(3,4)                  1.3981         estimate D2E/DX2                !
 ! R7    R(3,8)                  1.0825         estimate D2E/DX2                !
 ! R8    R(4,5)                  1.3993         estimate D2E/DX2                !
 ! R9    R(4,9)                  1.0826         estimate D2E/DX2                !
 ! R10   R(5,6)                  1.4058         estimate D2E/DX2                !
 ! R11   R(5,10)                 1.0838         estimate D2E/DX2                !
 ! R12   R(6,30)                 1.4298         estimate D2E/DX2                !
 ! R13   R(7,11)                 1.3658         estimate D2E/DX2                !
 ! R14   R(7,13)                 1.4499         estimate D2E/DX2                !
 ! R15   R(7,29)                 1.3432         estimate D2E/DX2                !
 ! R16   R(11,50)                1.0168         estimate D2E/DX2                !
 ! R17   R(12,13)                1.4679         estimate D2E/DX2                !
 ! R18   R(12,17)                1.4614         estimate D2E/DX2                !
 ! R19   R(12,28)                1.2581         estimate D2E/DX2                !
 ! R20   R(13,14)                1.3822         estimate D2E/DX2                !
 ! R21   R(14,15)                1.4095         estimate D2E/DX2                !
 ! R22   R(14,18)                1.0835         estimate D2E/DX2                !
 ! R23   R(15,16)                1.4136         estimate D2E/DX2                !
 ! R24   R(15,20)                1.4975         estimate D2E/DX2                !
 ! R25   R(16,17)                1.377          estimate D2E/DX2                !
 ! R26   R(16,19)                1.085          estimate D2E/DX2                !
 ! R27   R(17,24)                1.4947         estimate D2E/DX2                !
 ! R28   R(20,21)                1.0943         estimate D2E/DX2                !
 ! R29   R(20,22)                1.0949         estimate D2E/DX2                !
 ! R30   R(20,23)                1.09           estimate D2E/DX2                !
 ! R31   R(24,25)                1.0935         estimate D2E/DX2                !
 ! R32   R(24,26)                1.0941         estimate D2E/DX2                !
 ! R33   R(24,27)                1.0899         estimate D2E/DX2                !
 ! R34   R(30,31)                1.0847         estimate D2E/DX2                !
 ! R35   R(30,32)                1.2989         estimate D2E/DX2                !
 ! R36   R(32,33)                1.4763         estimate D2E/DX2                !
 ! R37   R(32,51)                1.0272         estimate D2E/DX2                !
 ! R38   R(33,34)                1.5353         estimate D2E/DX2                !
 ! R39   R(33,35)                1.5329         estimate D2E/DX2                !
 ! R40   R(33,36)                1.0919         estimate D2E/DX2                !
 ! R41   R(34,37)                1.5335         estimate D2E/DX2                !
 ! R42   R(34,38)                1.0961         estimate D2E/DX2                !
 ! R43   R(34,39)                1.093          estimate D2E/DX2                !
 ! R44   R(35,40)                1.533          estimate D2E/DX2                !
 ! R45   R(35,41)                1.0958         estimate D2E/DX2                !
 ! R46   R(35,42)                1.0927         estimate D2E/DX2                !
 ! R47   R(37,43)                1.5323         estimate D2E/DX2                !
 ! R48   R(37,44)                1.0935         estimate D2E/DX2                !
 ! R49   R(37,45)                1.0967         estimate D2E/DX2                !
 ! R50   R(40,43)                1.5329         estimate D2E/DX2                !
 ! R51   R(40,46)                1.0934         estimate D2E/DX2                !
 ! R52   R(40,47)                1.0967         estimate D2E/DX2                !
 ! R53   R(43,48)                1.0936         estimate D2E/DX2                !
 ! R54   R(43,49)                1.097          estimate D2E/DX2                !
 ! A1    A(2,1,6)              119.902          estimate D2E/DX2                !
 ! A2    A(2,1,29)             110.6666         estimate D2E/DX2                !
 ! A3    A(6,1,29)             129.4312         estimate D2E/DX2                !
 ! A4    A(1,2,3)              122.1856         estimate D2E/DX2                !
 ! A5    A(1,2,11)             104.4079         estimate D2E/DX2                !
 ! A6    A(3,2,11)             133.4063         estimate D2E/DX2                !
 ! A7    A(2,3,4)              117.3186         estimate D2E/DX2                !
 ! A8    A(2,3,8)              121.4289         estimate D2E/DX2                !
 ! A9    A(4,3,8)              121.2525         estimate D2E/DX2                !
 ! A10   A(3,4,5)              121.6397         estimate D2E/DX2                !
 ! A11   A(3,4,9)              119.1403         estimate D2E/DX2                !
 ! A12   A(5,4,9)              119.22           estimate D2E/DX2                !
 ! A13   A(4,5,6)              121.431          estimate D2E/DX2                !
 ! A14   A(4,5,10)             119.6923         estimate D2E/DX2                !
 ! A15   A(6,5,10)             118.8764         estimate D2E/DX2                !
 ! A16   A(1,6,5)              117.5194         estimate D2E/DX2                !
 ! A17   A(1,6,30)             122.0066         estimate D2E/DX2                !
 ! A18   A(5,6,30)             120.4694         estimate D2E/DX2                !
 ! A19   A(11,7,13)            123.0616         estimate D2E/DX2                !
 ! A20   A(11,7,29)            111.7607         estimate D2E/DX2                !
 ! A21   A(13,7,29)            125.1775         estimate D2E/DX2                !
 ! A22   A(2,11,7)             108.0917         estimate D2E/DX2                !
 ! A23   A(2,11,50)            130.7019         estimate D2E/DX2                !
 ! A24   A(7,11,50)            121.2034         estimate D2E/DX2                !
 ! A25   A(13,12,17)           117.6958         estimate D2E/DX2                !
 ! A26   A(13,12,28)           122.2136         estimate D2E/DX2                !
 ! A27   A(17,12,28)           120.0903         estimate D2E/DX2                !
 ! A28   A(7,13,12)            120.2924         estimate D2E/DX2                !
 ! A29   A(7,13,14)            119.8713         estimate D2E/DX2                !
 ! A30   A(12,13,14)           119.8362         estimate D2E/DX2                !
 ! A31   A(13,14,15)           121.5478         estimate D2E/DX2                !
 ! A32   A(13,14,18)           119.0059         estimate D2E/DX2                !
 ! A33   A(15,14,18)           119.4439         estimate D2E/DX2                !
 ! A34   A(14,15,16)           119.2117         estimate D2E/DX2                !
 ! A35   A(14,15,20)           119.9008         estimate D2E/DX2                !
 ! A36   A(16,15,20)           120.8838         estimate D2E/DX2                !
 ! A37   A(15,16,17)           122.2155         estimate D2E/DX2                !
 ! A38   A(15,16,19)           118.5232         estimate D2E/DX2                !
 ! A39   A(17,16,19)           119.2599         estimate D2E/DX2                !
 ! A40   A(12,17,16)           119.4851         estimate D2E/DX2                !
 ! A41   A(12,17,24)           117.8252         estimate D2E/DX2                !
 ! A42   A(16,17,24)           122.6874         estimate D2E/DX2                !
 ! A43   A(15,20,21)           110.8331         estimate D2E/DX2                !
 ! A44   A(15,20,22)           110.2861         estimate D2E/DX2                !
 ! A45   A(15,20,23)           111.526          estimate D2E/DX2                !
 ! A46   A(21,20,22)           106.6963         estimate D2E/DX2                !
 ! A47   A(21,20,23)           108.7427         estimate D2E/DX2                !
 ! A48   A(22,20,23)           108.606          estimate D2E/DX2                !
 ! A49   A(17,24,25)           110.6012         estimate D2E/DX2                !
 ! A50   A(17,24,26)           110.852          estimate D2E/DX2                !
 ! A51   A(17,24,27)           110.9075         estimate D2E/DX2                !
 ! A52   A(25,24,26)           106.4234         estimate D2E/DX2                !
 ! A53   A(25,24,27)           109.0656         estimate D2E/DX2                !
 ! A54   A(26,24,27)           108.8647         estimate D2E/DX2                !
 ! A55   A(1,29,7)             105.0729         estimate D2E/DX2                !
 ! A56   A(6,30,31)            118.9425         estimate D2E/DX2                !
 ! A57   A(6,30,32)            123.0694         estimate D2E/DX2                !
 ! A58   A(31,30,32)           117.988          estimate D2E/DX2                !
 ! A59   A(30,32,33)           125.1394         estimate D2E/DX2                !
 ! A60   A(30,32,51)           116.0886         estimate D2E/DX2                !
 ! A61   A(33,32,51)           118.76           estimate D2E/DX2                !
 ! A62   A(32,33,34)           110.8744         estimate D2E/DX2                !
 ! A63   A(32,33,35)           111.5105         estimate D2E/DX2                !
 ! A64   A(32,33,36)           104.8023         estimate D2E/DX2                !
 ! A65   A(34,33,35)           111.5298         estimate D2E/DX2                !
 ! A66   A(34,33,36)           108.9113         estimate D2E/DX2                !
 ! A67   A(35,33,36)           108.9476         estimate D2E/DX2                !
 ! A68   A(33,34,37)           110.1312         estimate D2E/DX2                !
 ! A69   A(33,34,38)           108.5881         estimate D2E/DX2                !
 ! A70   A(33,34,39)           109.6966         estimate D2E/DX2                !
 ! A71   A(37,34,38)           109.876          estimate D2E/DX2                !
 ! A72   A(37,34,39)           110.9468         estimate D2E/DX2                !
 ! A73   A(38,34,39)           107.5355         estimate D2E/DX2                !
 ! A74   A(33,35,40)           110.1995         estimate D2E/DX2                !
 ! A75   A(33,35,41)           109.1338         estimate D2E/DX2                !
 ! A76   A(33,35,42)           109.5694         estimate D2E/DX2                !
 ! A77   A(40,35,41)           109.1545         estimate D2E/DX2                !
 ! A78   A(40,35,42)           111.2174         estimate D2E/DX2                !
 ! A79   A(41,35,42)           107.5032         estimate D2E/DX2                !
 ! A80   A(34,37,43)           111.5414         estimate D2E/DX2                !
 ! A81   A(34,37,44)           109.6973         estimate D2E/DX2                !
 ! A82   A(34,37,45)           108.8635         estimate D2E/DX2                !
 ! A83   A(43,37,44)           110.6498         estimate D2E/DX2                !
 ! A84   A(43,37,45)           109.2041         estimate D2E/DX2                !
 ! A85   A(44,37,45)           106.7491         estimate D2E/DX2                !
 ! A86   A(35,40,43)           111.2264         estimate D2E/DX2                !
 ! A87   A(35,40,46)           109.3661         estimate D2E/DX2                !
 ! A88   A(35,40,47)           109.1659         estimate D2E/DX2                !
 ! A89   A(43,40,46)           110.7104         estimate D2E/DX2                !
 ! A90   A(43,40,47)           109.3609         estimate D2E/DX2                !
 ! A91   A(46,40,47)           106.9024         estimate D2E/DX2                !
 ! A92   A(37,43,40)           111.072          estimate D2E/DX2                !
 ! A93   A(37,43,48)           110.1398         estimate D2E/DX2                !
 ! A94   A(37,43,49)           109.2524         estimate D2E/DX2                !
 ! A95   A(40,43,48)           110.2018         estimate D2E/DX2                !
 ! A96   A(40,43,49)           109.1225         estimate D2E/DX2                !
 ! A97   A(48,43,49)           106.9522         estimate D2E/DX2                !
 ! D1    D(6,1,2,3)             -0.1505         estimate D2E/DX2                !
 ! D2    D(6,1,2,11)           179.7165         estimate D2E/DX2                !
 ! D3    D(29,1,2,3)          -179.9601         estimate D2E/DX2                !
 ! D4    D(29,1,2,11)           -0.0932         estimate D2E/DX2                !
 ! D5    D(2,1,6,5)              0.6147         estimate D2E/DX2                !
 ! D6    D(2,1,6,30)          -178.6103         estimate D2E/DX2                !
 ! D7    D(29,1,6,5)          -179.6159         estimate D2E/DX2                !
 ! D8    D(29,1,6,30)            1.1591         estimate D2E/DX2                !
 ! D9    D(2,1,29,7)            -0.004          estimate D2E/DX2                !
 ! D10   D(6,1,29,7)          -179.7904         estimate D2E/DX2                !
 ! D11   D(1,2,3,4)             -0.3095         estimate D2E/DX2                !
 ! D12   D(1,2,3,8)            179.6865         estimate D2E/DX2                !
 ! D13   D(11,2,3,4)           179.8679         estimate D2E/DX2                !
 ! D14   D(11,2,3,8)            -0.1361         estimate D2E/DX2                !
 ! D15   D(1,2,11,7)             0.1522         estimate D2E/DX2                !
 ! D16   D(1,2,11,50)         -179.2072         estimate D2E/DX2                !
 ! D17   D(3,2,11,7)           179.9972         estimate D2E/DX2                !
 ! D18   D(3,2,11,50)            0.6378         estimate D2E/DX2                !
 ! D19   D(2,3,4,5)              0.2956         estimate D2E/DX2                !
 ! D20   D(2,3,4,9)           -179.7472         estimate D2E/DX2                !
 ! D21   D(8,3,4,5)           -179.7005         estimate D2E/DX2                !
 ! D22   D(8,3,4,9)              0.2567         estimate D2E/DX2                !
 ! D23   D(3,4,5,6)              0.1839         estimate D2E/DX2                !
 ! D24   D(3,4,5,10)           179.9734         estimate D2E/DX2                !
 ! D25   D(9,4,5,6)           -179.7733         estimate D2E/DX2                !
 ! D26   D(9,4,5,10)             0.0162         estimate D2E/DX2                !
 ! D27   D(4,5,6,1)             -0.6366         estimate D2E/DX2                !
 ! D28   D(4,5,6,30)           178.6009         estimate D2E/DX2                !
 ! D29   D(10,5,6,1)           179.5722         estimate D2E/DX2                !
 ! D30   D(10,5,6,30)           -1.1903         estimate D2E/DX2                !
 ! D31   D(1,6,30,31)         -179.7764         estimate D2E/DX2                !
 ! D32   D(1,6,30,32)            0.366          estimate D2E/DX2                !
 ! D33   D(5,6,30,31)            1.021          estimate D2E/DX2                !
 ! D34   D(5,6,30,32)         -178.8366         estimate D2E/DX2                !
 ! D35   D(13,7,11,2)          179.6479         estimate D2E/DX2                !
 ! D36   D(13,7,11,50)          -0.9199         estimate D2E/DX2                !
 ! D37   D(29,7,11,2)           -0.1678         estimate D2E/DX2                !
 ! D38   D(29,7,11,50)         179.2645         estimate D2E/DX2                !
 ! D39   D(11,7,13,12)           2.7304         estimate D2E/DX2                !
 ! D40   D(11,7,13,14)        -177.1479         estimate D2E/DX2                !
 ! D41   D(29,7,13,12)        -177.479          estimate D2E/DX2                !
 ! D42   D(29,7,13,14)           2.6427         estimate D2E/DX2                !
 ! D43   D(11,7,29,1)            0.1044         estimate D2E/DX2                !
 ! D44   D(13,7,29,1)         -179.7066         estimate D2E/DX2                !
 ! D45   D(17,12,13,7)         179.7233         estimate D2E/DX2                !
 ! D46   D(17,12,13,14)         -0.3983         estimate D2E/DX2                !
 ! D47   D(28,12,13,7)          -0.4664         estimate D2E/DX2                !
 ! D48   D(28,12,13,14)        179.4119         estimate D2E/DX2                !
 ! D49   D(13,12,17,16)          0.7391         estimate D2E/DX2                !
 ! D50   D(13,12,17,24)       -179.8131         estimate D2E/DX2                !
 ! D51   D(28,12,17,16)       -179.0753         estimate D2E/DX2                !
 ! D52   D(28,12,17,24)          0.3725         estimate D2E/DX2                !
 ! D53   D(7,13,14,15)         179.4545         estimate D2E/DX2                !
 ! D54   D(7,13,14,18)           0.0158         estimate D2E/DX2                !
 ! D55   D(12,13,14,15)         -0.4244         estimate D2E/DX2                !
 ! D56   D(12,13,14,18)       -179.8631         estimate D2E/DX2                !
 ! D57   D(13,14,15,16)          0.9108         estimate D2E/DX2                !
 ! D58   D(13,14,15,20)       -178.3966         estimate D2E/DX2                !
 ! D59   D(18,14,15,16)       -179.6529         estimate D2E/DX2                !
 ! D60   D(18,14,15,20)          1.0396         estimate D2E/DX2                !
 ! D61   D(14,15,16,17)         -0.5546         estimate D2E/DX2                !
 ! D62   D(14,15,16,19)        179.8866         estimate D2E/DX2                !
 ! D63   D(20,15,16,17)        178.7458         estimate D2E/DX2                !
 ! D64   D(20,15,16,19)         -0.813          estimate D2E/DX2                !
 ! D65   D(14,15,20,21)        -57.508          estimate D2E/DX2                !
 ! D66   D(14,15,20,22)         60.4212         estimate D2E/DX2                !
 ! D67   D(14,15,20,23)       -178.8178         estimate D2E/DX2                !
 ! D68   D(16,15,20,21)        123.1964         estimate D2E/DX2                !
 ! D69   D(16,15,20,22)       -118.8745         estimate D2E/DX2                !
 ! D70   D(16,15,20,23)          1.8865         estimate D2E/DX2                !
 ! D71   D(15,16,17,12)         -0.2723         estimate D2E/DX2                !
 ! D72   D(15,16,17,24)       -179.692          estimate D2E/DX2                !
 ! D73   D(19,16,17,12)        179.2834         estimate D2E/DX2                !
 ! D74   D(19,16,17,24)         -0.1364         estimate D2E/DX2                !
 ! D75   D(12,17,24,25)        -55.9473         estimate D2E/DX2                !
 ! D76   D(12,17,24,26)         61.8536         estimate D2E/DX2                !
 ! D77   D(12,17,24,27)       -177.0892         estimate D2E/DX2                !
 ! D78   D(16,17,24,25)        123.4816         estimate D2E/DX2                !
 ! D79   D(16,17,24,26)       -118.7175         estimate D2E/DX2                !
 ! D80   D(16,17,24,27)          2.3396         estimate D2E/DX2                !
 ! D81   D(6,30,32,33)         178.9781         estimate D2E/DX2                !
 ! D82   D(6,30,32,51)           0.2544         estimate D2E/DX2                !
 ! D83   D(31,30,32,33)         -0.8808         estimate D2E/DX2                !
 ! D84   D(31,30,32,51)       -179.6045         estimate D2E/DX2                !
 ! D85   D(30,32,33,34)        -69.6216         estimate D2E/DX2                !
 ! D86   D(30,32,33,35)         55.3008         estimate D2E/DX2                !
 ! D87   D(30,32,33,36)        173.0202         estimate D2E/DX2                !
 ! D88   D(51,32,33,34)        109.0709         estimate D2E/DX2                !
 ! D89   D(51,32,33,35)       -126.0067         estimate D2E/DX2                !
 ! D90   D(51,32,33,36)         -8.2873         estimate D2E/DX2                !
 ! D91   D(32,33,34,37)       -178.3534         estimate D2E/DX2                !
 ! D92   D(32,33,34,38)         61.2943         estimate D2E/DX2                !
 ! D93   D(32,33,34,39)        -55.9655         estimate D2E/DX2                !
 ! D94   D(35,33,34,37)         56.7349         estimate D2E/DX2                !
 ! D95   D(35,33,34,38)        -63.6173         estimate D2E/DX2                !
 ! D96   D(35,33,34,39)        179.1229         estimate D2E/DX2                !
 ! D97   D(36,33,34,37)        -63.5389         estimate D2E/DX2                !
 ! D98   D(36,33,34,38)        176.1089         estimate D2E/DX2                !
 ! D99   D(36,33,34,39)         58.8491         estimate D2E/DX2                !
 ! D100  D(32,33,35,40)        178.2976         estimate D2E/DX2                !
 ! D101  D(32,33,35,41)        -61.8538         estimate D2E/DX2                !
 ! D102  D(32,33,35,42)         55.6103         estimate D2E/DX2                !
 ! D103  D(34,33,35,40)        -57.1466         estimate D2E/DX2                !
 ! D104  D(34,33,35,41)         62.702          estimate D2E/DX2                !
 ! D105  D(34,33,35,42)       -179.8338         estimate D2E/DX2                !
 ! D106  D(36,33,35,40)         63.106          estimate D2E/DX2                !
 ! D107  D(36,33,35,41)       -177.0455         estimate D2E/DX2                !
 ! D108  D(36,33,35,42)        -59.5813         estimate D2E/DX2                !
 ! D109  D(33,34,37,43)        -55.6611         estimate D2E/DX2                !
 ! D110  D(33,34,37,44)       -178.6188         estimate D2E/DX2                !
 ! D111  D(33,34,37,45)         64.908          estimate D2E/DX2                !
 ! D112  D(38,34,37,43)         63.9118         estimate D2E/DX2                !
 ! D113  D(38,34,37,44)        -59.0459         estimate D2E/DX2                !
 ! D114  D(38,34,37,45)       -175.5191         estimate D2E/DX2                !
 ! D115  D(39,34,37,43)       -177.3086         estimate D2E/DX2                !
 ! D116  D(39,34,37,44)         59.7337         estimate D2E/DX2                !
 ! D117  D(39,34,37,45)        -56.7395         estimate D2E/DX2                !
 ! D118  D(33,35,40,43)         56.2879         estimate D2E/DX2                !
 ! D119  D(33,35,40,46)        178.8802         estimate D2E/DX2                !
 ! D120  D(33,35,40,47)        -64.4767         estimate D2E/DX2                !
 ! D121  D(41,35,40,43)        -63.5481         estimate D2E/DX2                !
 ! D122  D(41,35,40,46)         59.0442         estimate D2E/DX2                !
 ! D123  D(41,35,40,47)        175.6872         estimate D2E/DX2                !
 ! D124  D(42,35,40,43)        178.0023         estimate D2E/DX2                !
 ! D125  D(42,35,40,46)        -59.4054         estimate D2E/DX2                !
 ! D126  D(42,35,40,47)         57.2376         estimate D2E/DX2                !
 ! D127  D(34,37,43,40)         55.5211         estimate D2E/DX2                !
 ! D128  D(34,37,43,48)        177.8977         estimate D2E/DX2                !
 ! D129  D(34,37,43,49)        -64.9056         estimate D2E/DX2                !
 ! D130  D(44,37,43,40)        177.9333         estimate D2E/DX2                !
 ! D131  D(44,37,43,48)        -59.6901         estimate D2E/DX2                !
 ! D132  D(44,37,43,49)         57.5066         estimate D2E/DX2                !
 ! D133  D(45,37,43,40)        -64.8483         estimate D2E/DX2                !
 ! D134  D(45,37,43,48)         57.5283         estimate D2E/DX2                !
 ! D135  D(45,37,43,49)        174.725          estimate D2E/DX2                !
 ! D136  D(35,40,43,37)        -55.7187         estimate D2E/DX2                !
 ! D137  D(35,40,43,48)       -178.0593         estimate D2E/DX2                !
 ! D138  D(35,40,43,49)         64.7849         estimate D2E/DX2                !
 ! D139  D(46,40,43,37)       -177.5324         estimate D2E/DX2                !
 ! D140  D(46,40,43,48)         60.1269         estimate D2E/DX2                !
 ! D141  D(46,40,43,49)        -57.0289         estimate D2E/DX2                !
 ! D142  D(47,40,43,37)         64.9313         estimate D2E/DX2                !
 ! D143  D(47,40,43,48)        -57.4094         estimate D2E/DX2                !
 ! D144  D(47,40,43,49)       -174.5652         estimate D2E/DX2                !
 --------------------------------------------------------------------------------
 Trust Radius=3.00D-01 FncErr=5.00D-06 GrdErr=5.00D-06 EigMax=2.50D+02 EigMin=1.00D-04
 Number of steps in this run=    305 maximum allowed number of steps=    306.
 GradGradGradGradGradGradGradGradGradGradGradGradGradGradGradGradGradGrad

 Leave Link  103 at Mon Dec 17 09:59:35 2018, MaxMem=  1342177280 cpu:               0.8 elap:               0.1
 (Enter /gpfs/apps/hpc/Apps/Restricted/Gaussian/Rev_A.03/g16/l202.exe)
 Symmetry turned off by external request.
 Stoichiometry    C22H25N3O
 Framework group  C1[X(C22H25N3O)]
 Deg. of freedom   147
 Full point group                 C1      NOp   1
                          Input orientation:                          
 ---------------------------------------------------------------------
 Center     Atomic      Atomic             Coordinates (Angstroms)
 Number     Number       Type             X           Y           Z
 ---------------------------------------------------------------------
      1          6           0       -0.522494    2.720922    0.334065
      2          6           0       -1.920373    2.946812    0.271763
      3          6           0       -2.463177    4.228876    0.212392
      4          6           0       -1.570395    5.304776    0.222961
      5          6           0       -0.186106    5.109398    0.284154
      6          6           0        0.370713    3.819494    0.334037
      7          6           0       -1.452750    0.780255    0.352846
      8          1           0       -3.532801    4.387135    0.160090
      9          1           0       -1.960409    6.313878    0.182075
     10          1           0        0.477278    5.966428    0.290185
     11          7           0       -2.471007    1.687951    0.283828
     12          6           0       -3.031591   -1.196578    0.296443
     13          6           0       -1.671580   -0.652467    0.391436
     14          6           0       -0.595272   -1.510036    0.520762
     15          6           0       -0.768284   -2.907891    0.573466
     16          6           0       -2.071581   -3.446043    0.472613
     17          6           0       -3.186202   -2.649233    0.335069
     18          1           0        0.402578   -1.093778    0.592018
     19          1           0       -2.191689   -4.523616    0.512642
     20          6           0        0.420571   -3.801081    0.750214
     21          1           0        1.152428   -3.637097   -0.046592
     22          1           0        0.927532   -3.575929    1.694173
     23          1           0        0.134030   -4.852711    0.751573
     24          6           0       -4.569462   -3.206574    0.234261
     25          1           0       -5.210679   -2.788300    1.015108
     26          1           0       -5.029370   -2.936798   -0.721138
     27          1           0       -4.558879   -4.292528    0.326086
     28          8           0       -4.043749   -0.457165    0.188619
     29          7           0       -0.251649    1.380692    0.383431
     30          6           0        1.789159    3.642879    0.366127
     31          1           0        2.427424    4.519920    0.368273
     32          7           0        2.357617    2.475252    0.390379
     33          6           0        3.814958    2.239787    0.402374
     34          6           0        4.441855    2.621128   -0.946264
     35          6           0        4.493205    2.972796    1.565347
     36          1           0        3.922406    1.163410    0.550830
     37          6           0        5.947690    2.331678   -0.928988
     38          1           0        4.269676    3.689290   -1.122042
     39          1           0        3.947441    2.071074   -1.750988
     40          6           0        5.996832    2.674097    1.574422
     41          1           0        4.341643    4.051631    1.447197
     42          1           0        4.025437    2.676423    2.507393
     43          6           0        6.644252    3.044126    0.235184
     44          1           0        6.391025    2.628503   -1.883476
     45          1           0        6.099723    1.249891   -0.832731
     46          1           0        6.469737    3.218788    2.396102
     47          1           0        6.150556    1.605923    1.769743
     48          1           0        7.708461    2.792674    0.247931
     49          1           0        6.573672    4.129155    0.089523
     50          1           0       -3.441808    1.388416    0.242278
     51          1           0        1.726118    1.665096    0.381226
 ---------------------------------------------------------------------
 Rotational constants (GHZ):           0.2788027           0.1072259           0.0800818
 Leave Link  202 at Mon Dec 17 09:59:35 2018, MaxMem=  1342177280 cpu:               0.2 elap:               0.0
 (Enter /gpfs/apps/hpc/Apps/Restricted/Gaussian/Rev_A.03/g16/l301.exe)
 Standard basis: 6-31G(d,p) (6D, 7F)
 Ernie: Thresh=  0.10000D-02 Tol=  0.10000D-05 Strict=F.
   515 basis functions,   903 primitive gaussians,   515 cartesian basis functions
    93 alpha electrons       93 beta electrons
       nuclear repulsion energy      2188.7286744963 Hartrees.
 IExCor=  402 DFT=T Ex+Corr=B3LYP ExCW=0 ScaHFX=  0.200000
 ScaDFX=  0.800000  0.720000  1.000000  0.810000 ScalE2=  1.000000  1.000000
 IRadAn=      5 IRanWt=     -1 IRanGd=            0 ICorTp=0 IEmpDi=141
 NAtoms=   51 NActive=   51 NUniq=   51 SFac= 1.00D+00 NAtFMM=   60 NAOKFM=F Big=F
 Integral buffers will be    131072 words long.
 Raffenetti 2 integral format.
 Two-electron integral symmetry is turned off.
 R6Disp:  Grimme-D3(BJ) Dispersion energy=       -0.1079623783 Hartrees.
 Nuclear repulsion after empirical dispersion term =     2188.6207121180 Hartrees.
 Using the following non-standard input for PCM:
 radii=bondi
 dis
 rep
 cav
 --- end of non-standard input.
 ------------------------------------------------------------------------------
 Polarizable Continuum Model (PCM)
 =================================
 Model                : C-PCM.
 Atomic radii         : Bondi.
 Polarization charges : Total charges.
 Charge compensation  : None.
 Solution method      : On-the-fly selection.
 Cavity type          : Scaled VdW (van der Waals Surface) (Alpha=1.100).
 Cavity algorithm     : GePol (No added spheres)
                        Default sphere list used, NSphG=   51.
                        Lebedev-Laikov grids with approx.  5.0 points / Ang**2.
                        Smoothing algorithm: York/Karplus (Gamma=1.0000).
                        Polarization charges: spherical gaussians, with
                                              point-specific exponents (IZeta= 3).
                        Self-potential: point-specific (ISelfS= 7).
                        Self-field    : sphere-specific E.n sum rule (ISelfD= 2).
 1st derivatives      : Analytical E(r).r(x)/FMM algorithm (CHGder, D1EAlg=3).
                        Cavity 1st derivative terms included.
 Solvent              : Dichloromethane, Eps=   8.930000 Eps(inf)=   2.028346
 ------------------------------------------------------------------------------
 GePol: Number of generator spheres                  =      51
 GePol: Total number of spheres                      =      51
 GePol: Number of exposed spheres                    =      51 (100.00%)
 GePol: Number of points                             =    3466
 GePol: Average weight of points                     =       0.12
 GePol: Minimum weight of points                     =   0.11D-09
 GePol: Maximum weight of points                     =    0.21770
 GePol: Number of points with low weight             =     246
 GePol: Fraction of low-weight points (<1% of avg)   =       7.10%
 GePol: Cavity surface area                          =    411.893 Ang**2
 GePol: Cavity volume                                =    387.983 Ang**3
 PCM non-electrostatic energy =         0.0153847326 Hartrees.
 Nuclear repulsion after PCM non-electrostatic terms =     2188.6360968507 Hartrees.
 Leave Link  301 at Mon Dec 17 09:59:36 2018, MaxMem=  1342177280 cpu:               2.2 elap:               0.2
 (Enter /gpfs/apps/hpc/Apps/Restricted/Gaussian/Rev_A.03/g16/l302.exe)
 NPDir=0 NMtPBC=     1 NCelOv=     1 NCel=       1 NClECP=     1 NCelD=      1
         NCelK=      1 NCelE2=     1 NClLst=     1 CellRange=     0.0.
 One-electron integrals computed using PRISM.
 NBasis=   515 RedAO= T EigKep=  3.13D-04  NBF=   515
 NBsUse=   515 1.00D-06 EigRej= -1.00D+00 NBFU=   515
 Precomputing XC quadrature grid using
 IXCGrd= 4 IRadAn=           5 IRanWt=          -1 IRanGd=           0 AccXCQ= 0.00D+00.
 Generated NRdTot=       0 NPtTot=           0 NUsed=           0 NTot=          32
 NSgBfM=   501   501   501   501   501 MxSgAt=    51 MxSgA2=    51.
 Leave Link  302 at Mon Dec 17 09:59:36 2018, MaxMem=  1342177280 cpu:               9.7 elap:               0.6
 (Enter /gpfs/apps/hpc/Apps/Restricted/Gaussian/Rev_A.03/g16/l303.exe)
 DipDrv:  MaxL=1.
 Leave Link  303 at Mon Dec 17 09:59:36 2018, MaxMem=  1342177280 cpu:               1.0 elap:               0.1
 (Enter /gpfs/apps/hpc/Apps/Restricted/Gaussian/Rev_A.03/g16/l401.exe)
 ExpMin= 1.61D-01 ExpMax= 5.48D+03 ExpMxC= 8.25D+02 IAcc=3 IRadAn=         5 AccDes= 0.00D+00
 Harris functional with IExCor=  402 and IRadAn=       5 diagonalized for initial guess.
 HarFok:  IExCor=  402 AccDes= 0.00D+00 IRadAn=         5 IDoV= 1 UseB2=F ITyADJ=14
 ICtDFT=  3500011 ScaDFX=  1.000000  1.000000  1.000000  1.000000
 FoFCou: FMM=F IPFlag=           0 FMFlag=      100000 FMFlg1=           0
         NFxFlg=           0 DoJE=T BraDBF=F KetDBF=T FulRan=T
         wScrn=  0.000000 ICntrl=       500 IOpCl=  0 I1Cent=   200000004 NGrid=           0
         NMat0=    1 NMatS0=      1 NMatT0=    0 NMatD0=    1 NMtDS0=    0 NMtDT0=    0
 Symmetry not used in FoFCou.
 Harris En= -1093.09264452283    
 JPrj=0 DoOrth=F DoCkMO=F.
 Leave Link  401 at Mon Dec 17 09:59:39 2018, MaxMem=  1342177280 cpu:              36.1 elap:               2.3
 (Enter /gpfs/apps/hpc/Apps/Restricted/Gaussian/Rev_A.03/g16/l502.exe)
 Two-electron integral symmetry not used.
 Closed shell SCF:
 Using DIIS extrapolation, IDIIS=  1040.
 NGot=  1342177280 LenX=  1341634262 LenY=  1341368522
 Requested convergence on RMS density matrix=1.00D-08 within 128 cycles.
 Requested convergence on MAX density matrix=1.00D-06.
 Requested convergence on             energy=1.00D-06.
 No special actions if energy rises.
 Fock matrices will be formed incrementally for  20 cycles.

 Cycle   1  Pass 1  IDiag  1:
 FoFJK:  IHMeth= 1 ICntrl=       0 DoSepK=F KAlg= 0 I1Cent=           0 FoldK=F
 IRaf= 600000000 NMat=       1 IRICut=       1 DoRegI=T DoRafI=F ISym2E= 0 IDoP0=0 IntGTp=1.
 FoFCou: FMM=F IPFlag=           0 FMFlag=      100000 FMFlg1=           0
         NFxFlg=           0 DoJE=F BraDBF=F KetDBF=F FulRan=T
         wScrn=  0.000000 ICntrl=         0 IOpCl=  0 I1Cent=           0 NGrid=           0
         NMat0=    1 NMatS0=      1 NMatT0=    0 NMatD0=    1 NMtDS0=    0 NMtDT0=    0
 Symmetry not used in FoFCou.
 Inv3:  Mode=1 IEnd=    36039468.
 Iteration    1 A*A^-1 deviation from unit magnitude is 1.10D-14 for    428.
 Iteration    1 A*A^-1 deviation from orthogonality  is 4.50D-15 for   2294    682.
 Iteration    1 A^-1*A deviation from unit magnitude is 1.12D-14 for    428.
 Iteration    1 A^-1*A deviation from orthogonality  is 3.03D-15 for   2290    646.
 E= -1092.42270119394    
 DIIS: error= 3.30D-02 at cycle   1 NSaved=   1.
 NSaved= 1 IEnMin= 1 EnMin= -1092.42270119394     IErMin= 1 ErrMin= 3.30D-02
 ErrMax= 3.30D-02  0.00D+00 EMaxC= 1.00D-01 BMatC= 6.23D-01 BMatP= 6.23D-01
 IDIUse=3 WtCom= 6.70D-01 WtEn= 3.30D-01
 Coeff-Com:  0.100D+01
 Coeff-En:   0.100D+01
 Coeff:      0.100D+01
 Gap=     0.030 Goal=   None    Shift=    0.000
 GapD=    0.030 DampG=0.250 DampE=0.500 DampFc=0.2500 IDamp=-1.
 Damping current iteration by 2.50D-01
 RMSDP=4.18D-03 MaxDP=2.54D-01              OVMax= 6.79D-01

 Cycle   2  Pass 1  IDiag  1:
 RMSU=  1.03D-03    CP:  9.85D-01
 E= -1092.64068110308     Delta-E=       -0.217979909147 Rises=F Damp=T
 DIIS: error= 1.58D-02 at cycle   2 NSaved=   2.
 NSaved= 2 IEnMin= 2 EnMin= -1092.64068110308     IErMin= 2 ErrMin= 1.58D-02
 ErrMax= 1.58D-02  0.00D+00 EMaxC= 1.00D-01 BMatC= 1.63D-01 BMatP= 6.23D-01
 IDIUse=3 WtCom= 8.42D-01 WtEn= 1.58D-01
 Coeff-Com: -0.743D+00 0.174D+01
 Coeff-En:   0.000D+00 0.100D+01
 Coeff:     -0.625D+00 0.163D+01
 Gap=     0.018 Goal=   None    Shift=    0.000
 RMSDP=1.52D-03 MaxDP=7.97D-02 DE=-2.18D-01 OVMax= 6.18D-01

 Cycle   3  Pass 1  IDiag  1:
 RMSU=  1.37D-03    CP:  9.55D-01  1.47D+00
 E= -1092.98027341915     Delta-E=       -0.339592316064 Rises=F Damp=F
 DIIS: error= 1.67D-02 at cycle   3 NSaved=   3.
 NSaved= 3 IEnMin= 3 EnMin= -1092.98027341915     IErMin= 2 ErrMin= 1.58D-02
 ErrMax= 1.67D-02  0.00D+00 EMaxC= 1.00D-01 BMatC= 9.17D-02 BMatP= 1.63D-01
 IDIUse=3 WtCom= 8.33D-01 WtEn= 1.67D-01
 Coeff-Com: -0.482D+00 0.103D+01 0.448D+00
 Coeff-En:   0.000D+00 0.000D+00 0.100D+01
 Coeff:     -0.401D+00 0.861D+00 0.541D+00
 Gap=     0.070 Goal=   None    Shift=    0.000
 RMSDP=9.44D-04 MaxDP=8.37D-02 DE=-3.40D-01 OVMax= 1.86D-01

 Cycle   4  Pass 1  IDiag  1:
 RMSU=  6.47D-04    CP:  9.61D-01  1.72D+00  5.41D-01
 E= -1093.05473360024     Delta-E=       -0.074460181091 Rises=F Damp=F
 DIIS: error= 7.19D-03 at cycle   4 NSaved=   4.
 NSaved= 4 IEnMin= 4 EnMin= -1093.05473360024     IErMin= 4 ErrMin= 7.19D-03
 ErrMax= 7.19D-03  0.00D+00 EMaxC= 1.00D-01 BMatC= 1.39D-02 BMatP= 9.17D-02
 IDIUse=3 WtCom= 9.28D-01 WtEn= 7.19D-02
 Coeff-Com: -0.130D+00 0.262D+00 0.288D+00 0.580D+00
 Coeff-En:   0.000D+00 0.000D+00 0.949D-01 0.905D+00
 Coeff:     -0.121D+00 0.243D+00 0.274D+00 0.603D+00
 Gap=     0.070 Goal=   None    Shift=    0.000
 RMSDP=3.62D-04 MaxDP=3.50D-02 DE=-7.45D-02 OVMax= 6.20D-02

 Cycle   5  Pass 1  IDiag  1:
 RMSU=  2.06D-04    CP:  9.60D-01  1.63D+00  6.64D-01  6.53D-01
 E= -1093.06468451742     Delta-E=       -0.009950917178 Rises=F Damp=F
 DIIS: error= 2.95D-03 at cycle   5 NSaved=   5.
 NSaved= 5 IEnMin= 5 EnMin= -1093.06468451742     IErMin= 5 ErrMin= 2.95D-03
 ErrMax= 2.95D-03  0.00D+00 EMaxC= 1.00D-01 BMatC= 2.29D-03 BMatP= 1.39D-02
 IDIUse=3 WtCom= 9.71D-01 WtEn= 2.95D-02
 Coeff-Com: -0.353D-01 0.558D-01 0.917D-01 0.355D+00 0.533D+00
 Coeff-En:   0.000D+00 0.000D+00 0.000D+00 0.143D+00 0.857D+00
 Coeff:     -0.343D-01 0.542D-01 0.890D-01 0.349D+00 0.542D+00
 Gap=     0.074 Goal=   None    Shift=    0.000
 RMSDP=1.27D-04 MaxDP=1.13D-02 DE=-9.95D-03 OVMax= 2.13D-02

 Cycle   6  Pass 1  IDiag  1:
 RMSU=  5.99D-05    CP:  9.60D-01  1.65D+00  6.47D-01  7.54D-01  5.97D-01
 E= -1093.06660895833     Delta-E=       -0.001924440911 Rises=F Damp=F
 DIIS: error= 3.16D-04 at cycle   6 NSaved=   6.
 NSaved= 6 IEnMin= 6 EnMin= -1093.06660895833     IErMin= 6 ErrMin= 3.16D-04
 ErrMax= 3.16D-04  0.00D+00 EMaxC= 1.00D-01 BMatC= 1.01D-04 BMatP= 2.29D-03
 IDIUse=3 WtCom= 9.97D-01 WtEn= 3.16D-03
 Coeff-Com: -0.860D-02 0.951D-02 0.172D-01 0.120D+00 0.273D+00 0.589D+00
 Coeff-En:   0.000D+00 0.000D+00 0.000D+00 0.000D+00 0.000D+00 0.100D+01
 Coeff:     -0.858D-02 0.948D-02 0.172D-01 0.120D+00 0.272D+00 0.590D+00
 Gap=     0.073 Goal=   None    Shift=    0.000
 RMSDP=2.55D-05 MaxDP=1.88D-03 DE=-1.92D-03 OVMax= 4.06D-03

 Cycle   7  Pass 1  IDiag  1:
 RMSU=  1.92D-05    CP:  9.60D-01  1.66D+00  6.47D-01  7.55D-01  6.63D-01
                    CP:  8.46D-01
 E= -1093.06670439039     Delta-E=       -0.000095432060 Rises=F Damp=F
 DIIS: error= 1.10D-04 at cycle   7 NSaved=   7.
 NSaved= 7 IEnMin= 7 EnMin= -1093.06670439039     IErMin= 7 ErrMin= 1.10D-04
 ErrMax= 1.10D-04  0.00D+00 EMaxC= 1.00D-01 BMatC= 1.08D-05 BMatP= 1.01D-04
 IDIUse=3 WtCom= 9.99D-01 WtEn= 1.10D-03
 Coeff-Com: -0.136D-02-0.137D-04-0.243D-02 0.204D-01 0.858D-01 0.309D+00
 Coeff-Com:  0.588D+00
 Coeff-En:   0.000D+00 0.000D+00 0.000D+00 0.000D+00 0.000D+00 0.000D+00
 Coeff-En:   0.100D+01
 Coeff:     -0.136D-02-0.136D-04-0.243D-02 0.204D-01 0.857D-01 0.309D+00
 Coeff:      0.589D+00
 Gap=     0.073 Goal=   None    Shift=    0.000
 RMSDP=8.51D-06 MaxDP=4.73D-04 DE=-9.54D-05 OVMax= 1.43D-03

 Cycle   8  Pass 1  IDiag  1:
 RMSU=  5.62D-06    CP:  9.60D-01  1.66D+00  6.47D-01  7.58D-01  6.68D-01
                    CP:  9.11D-01  7.62D-01
 E= -1093.06671477954     Delta-E=       -0.000010389155 Rises=F Damp=F
 DIIS: error= 4.46D-05 at cycle   8 NSaved=   8.
 NSaved= 8 IEnMin= 8 EnMin= -1093.06671477954     IErMin= 8 ErrMin= 4.46D-05
 ErrMax= 4.46D-05  0.00D+00 EMaxC= 1.00D-01 BMatC= 9.62D-07 BMatP= 1.08D-05
 IDIUse=1 WtCom= 1.00D+00 WtEn= 0.00D+00
 Coeff-Com: -0.524D-03 0.377D-03-0.249D-02-0.168D-02 0.161D-01 0.852D-01
 Coeff-Com:  0.277D+00 0.626D+00
 Coeff:     -0.524D-03 0.377D-03-0.249D-02-0.168D-02 0.161D-01 0.852D-01
 Coeff:      0.277D+00 0.626D+00
 Gap=     0.073 Goal=   None    Shift=    0.000
 RMSDP=3.15D-06 MaxDP=1.95D-04 DE=-1.04D-05 OVMax= 7.14D-04

 Cycle   9  Pass 1  IDiag  1:
 RMSU=  2.54D-06    CP:  9.60D-01  1.66D+00  6.47D-01  7.58D-01  6.69D-01
                    CP:  9.22D-01  8.25D-01  8.37D-01
 E= -1093.06671566212     Delta-E=       -0.000000882575 Rises=F Damp=F
 DIIS: error= 1.79D-05 at cycle   9 NSaved=   9.
 NSaved= 9 IEnMin= 9 EnMin= -1093.06671566212     IErMin= 9 ErrMin= 1.79D-05
 ErrMax= 1.79D-05  0.00D+00 EMaxC= 1.00D-01 BMatC= 2.07D-07 BMatP= 9.62D-07
 IDIUse=1 WtCom= 1.00D+00 WtEn= 0.00D+00
 Coeff-Com: -0.561D-04 0.607D-04-0.130D-02-0.384D-02-0.198D-02 0.422D-02
 Coeff-Com:  0.715D-01 0.361D+00 0.570D+00
 Coeff:     -0.561D-04 0.607D-04-0.130D-02-0.384D-02-0.198D-02 0.422D-02
 Coeff:      0.715D-01 0.361D+00 0.570D+00
 Gap=     0.073 Goal=   None    Shift=    0.000
 RMSDP=1.16D-06 MaxDP=8.51D-05 DE=-8.83D-07 OVMax= 2.18D-04

 Cycle  10  Pass 1  IDiag  1:
 RMSU=  6.77D-07    CP:  9.60D-01  1.66D+00  6.47D-01  7.58D-01  6.71D-01
                    CP:  9.30D-01  8.39D-01  9.16D-01  7.88D-01
 E= -1093.06671586472     Delta-E=       -0.000000202602 Rises=F Damp=F
 DIIS: error= 3.22D-06 at cycle  10 NSaved=  10.
 NSaved=10 IEnMin=10 EnMin= -1093.06671586472     IErMin=10 ErrMin= 3.22D-06
 ErrMax= 3.22D-06  0.00D+00 EMaxC= 1.00D-01 BMatC= 1.46D-08 BMatP= 2.07D-07
 IDIUse=1 WtCom= 1.00D+00 WtEn= 0.00D+00
 Coeff-Com:  0.191D-04-0.109D-04-0.490D-03-0.183D-02-0.255D-02-0.731D-02
 Coeff-Com:  0.659D-02 0.120D+00 0.270D+00 0.615D+00
 Coeff:      0.191D-04-0.109D-04-0.490D-03-0.183D-02-0.255D-02-0.731D-02
 Coeff:      0.659D-02 0.120D+00 0.270D+00 0.615D+00
 Gap=     0.073 Goal=   None    Shift=    0.000
 RMSDP=3.91D-07 MaxDP=2.50D-05 DE=-2.03D-07 OVMax= 6.36D-05

 Cycle  11  Pass 1  IDiag  1:
 RMSU=  2.66D-07    CP:  9.60D-01  1.66D+00  6.47D-01  7.58D-01  6.71D-01
                    CP:  9.32D-01  8.46D-01  9.34D-01  8.17D-01  7.49D-01
 E= -1093.06671587835     Delta-E=       -0.000000013629 Rises=F Damp=F
 DIIS: error= 2.00D-06 at cycle  11 NSaved=  11.
 NSaved=11 IEnMin=11 EnMin= -1093.06671587835     IErMin=11 ErrMin= 2.00D-06
 ErrMax= 2.00D-06  0.00D+00 EMaxC= 1.00D-01 BMatC= 2.99D-09 BMatP= 1.46D-08
 IDIUse=1 WtCom= 1.00D+00 WtEn= 0.00D+00
 Coeff-Com: -0.831D-05 0.277D-04-0.480D-04-0.283D-03-0.925D-03-0.475D-02
 Coeff-Com: -0.885D-02 0.366D-02 0.422D-01 0.346D+00 0.623D+00
 Coeff:     -0.831D-05 0.277D-04-0.480D-04-0.283D-03-0.925D-03-0.475D-02
 Coeff:     -0.885D-02 0.366D-02 0.422D-01 0.346D+00 0.623D+00
 Gap=     0.073 Goal=   None    Shift=    0.000
 RMSDP=1.57D-07 MaxDP=8.84D-06 DE=-1.36D-08 OVMax= 3.87D-05

 Cycle  12  Pass 1  IDiag  1:
 RMSU=  6.97D-08    CP:  9.60D-01  1.66D+00  6.47D-01  7.58D-01  6.71D-01
                    CP:  9.32D-01  8.47D-01  9.42D-01  8.34D-01  8.51D-01
                    CP:  6.79D-01
 E= -1093.06671588152     Delta-E=       -0.000000003176 Rises=F Damp=F
 DIIS: error= 3.74D-07 at cycle  12 NSaved=  12.
 NSaved=12 IEnMin=12 EnMin= -1093.06671588152     IErMin=12 ErrMin= 3.74D-07
 ErrMax= 3.74D-07  0.00D+00 EMaxC= 1.00D-01 BMatC= 1.89D-10 BMatP= 2.99D-09
 IDIUse=1 WtCom= 1.00D+00 WtEn= 0.00D+00
 Coeff-Com: -0.522D-05 0.129D-04 0.605D-06-0.214D-04-0.286D-03-0.190D-02
 Coeff-Com: -0.477D-02-0.587D-02 0.287D-02 0.130D+00 0.307D+00 0.573D+00
 Coeff:     -0.522D-05 0.129D-04 0.605D-06-0.214D-04-0.286D-03-0.190D-02
 Coeff:     -0.477D-02-0.587D-02 0.287D-02 0.130D+00 0.307D+00 0.573D+00
 Gap=     0.073 Goal=   None    Shift=    0.000
 RMSDP=3.67D-08 MaxDP=2.30D-06 DE=-3.18D-09 OVMax= 4.78D-06

 Cycle  13  Pass 1  IDiag  1:
 RMSU=  2.57D-08    CP:  9.60D-01  1.66D+00  6.47D-01  7.58D-01  6.71D-01
                    CP:  9.33D-01  8.48D-01  9.42D-01  8.34D-01  8.56D-01
                    CP:  7.36D-01  7.57D-01
 E= -1093.06671588167     Delta-E=       -0.000000000141 Rises=F Damp=F
 DIIS: error= 1.33D-07 at cycle  13 NSaved=  13.
 NSaved=13 IEnMin=13 EnMin= -1093.06671588167     IErMin=13 ErrMin= 1.33D-07
 ErrMax= 1.33D-07  0.00D+00 EMaxC= 1.00D-01 BMatC= 2.27D-11 BMatP= 1.89D-10
 IDIUse=1 WtCom= 1.00D+00 WtEn= 0.00D+00
 Coeff-Com: -0.173D-05 0.274D-05 0.537D-05 0.280D-04-0.138D-04-0.302D-03
 Coeff-Com: -0.112D-02-0.348D-02-0.488D-02 0.162D-01 0.676D-01 0.297D+00
 Coeff-Com:  0.629D+00
 Coeff:     -0.173D-05 0.274D-05 0.537D-05 0.280D-04-0.138D-04-0.302D-03
 Coeff:     -0.112D-02-0.348D-02-0.488D-02 0.162D-01 0.676D-01 0.297D+00
 Coeff:      0.629D+00
 Gap=     0.073 Goal=   None    Shift=    0.000
 RMSDP=1.15D-08 MaxDP=6.85D-07 DE=-1.41D-10 OVMax= 2.00D-06

 Cycle  14  Pass 1  IDiag  1:
 RMSU=  6.17D-09    CP:  9.60D-01  1.66D+00  6.47D-01  7.58D-01  6.71D-01
                    CP:  9.33D-01  8.48D-01  9.43D-01  8.35D-01  8.58D-01
                    CP:  7.42D-01  8.22D-01  7.28D-01
 E= -1093.06671588172     Delta-E=       -0.000000000052 Rises=F Damp=F
 DIIS: error= 2.41D-08 at cycle  14 NSaved=  14.
 NSaved=14 IEnMin=14 EnMin= -1093.06671588172     IErMin=14 ErrMin= 2.41D-08
 ErrMax= 2.41D-08  0.00D+00 EMaxC= 1.00D-01 BMatC= 6.97D-13 BMatP= 2.27D-11
 IDIUse=1 WtCom= 1.00D+00 WtEn= 0.00D+00
 Coeff-Com: -0.322D-06 0.424D-06 0.173D-05 0.924D-05 0.440D-05-0.428D-04
 Coeff-Com: -0.195D-03-0.939D-03-0.165D-02 0.127D-02 0.119D-01 0.819D-01
 Coeff-Com:  0.230D+00 0.678D+00
 Coeff:     -0.322D-06 0.424D-06 0.173D-05 0.924D-05 0.440D-05-0.428D-04
 Coeff:     -0.195D-03-0.939D-03-0.165D-02 0.127D-02 0.119D-01 0.819D-01
 Coeff:      0.230D+00 0.678D+00
 Gap=     0.073 Goal=   None    Shift=    0.000
 RMSDP=2.77D-09 MaxDP=1.85D-07 DE=-5.23D-11 OVMax= 4.45D-07

 Error on total polarization charges =  0.04092
 SCF Done:  E(RB3LYP) =  -1093.06671588     A.U. after   14 cycles
            NFock= 14  Conv=0.28D-08     -V/T= 2.0095
 KE= 1.082786552493D+03 PE=-6.913600818219D+03 EE= 2.549111452994D+03
 Leave Link  502 at Mon Dec 17 10:00:52 2018, MaxMem=  1342177280 cpu:            1127.4 elap:              73.2
 (Enter /gpfs/apps/hpc/Apps/Restricted/Gaussian/Rev_A.03/g16/l601.exe)
 Copying SCF densities to generalized density rwf, IOpCl= 0 IROHF=0.

 **********************************************************************

            Population analysis using the SCF density.

 **********************************************************************

 Alpha  occ. eigenvalues --  -19.07609 -14.40797 -14.37348 -14.32416 -10.27926
 Alpha  occ. eigenvalues --  -10.25838 -10.23855 -10.23018 -10.22698 -10.22061
 Alpha  occ. eigenvalues --  -10.21326 -10.20750 -10.20501 -10.19554 -10.18846
 Alpha  occ. eigenvalues --  -10.18813 -10.18153 -10.18118 -10.17804 -10.16970
 Alpha  occ. eigenvalues --  -10.16689 -10.16673 -10.16533 -10.16460 -10.16175
 Alpha  occ. eigenvalues --  -10.16130  -1.02027  -0.99179  -0.97458  -0.88102
 Alpha  occ. eigenvalues --   -0.86115  -0.83661  -0.82444  -0.78441  -0.77116
 Alpha  occ. eigenvalues --   -0.74920  -0.74750  -0.74437  -0.72247  -0.68535
 Alpha  occ. eigenvalues --   -0.67213  -0.64670  -0.63457  -0.62553  -0.61658
 Alpha  occ. eigenvalues --   -0.60972  -0.60305  -0.57300  -0.55507  -0.55072
 Alpha  occ. eigenvalues --   -0.54449  -0.51983  -0.50235  -0.49722  -0.47653
 Alpha  occ. eigenvalues --   -0.46762  -0.45470  -0.45348  -0.45145  -0.44661
 Alpha  occ. eigenvalues --   -0.44393  -0.43961  -0.43163  -0.42203  -0.41892
 Alpha  occ. eigenvalues --   -0.40769  -0.40121  -0.39602  -0.39267  -0.38454
 Alpha  occ. eigenvalues --   -0.38243  -0.37883  -0.37619  -0.37401  -0.37279
 Alpha  occ. eigenvalues --   -0.35847  -0.35416  -0.35162  -0.34758  -0.33693
 Alpha  occ. eigenvalues --   -0.33137  -0.32440  -0.32355  -0.31675  -0.31513
 Alpha  occ. eigenvalues --   -0.29943  -0.28886  -0.28783  -0.25876  -0.24239
 Alpha  occ. eigenvalues --   -0.21513  -0.21338  -0.15939
 Alpha virt. eigenvalues --   -0.08622  -0.01505   0.01408   0.03439   0.04354
 Alpha virt. eigenvalues --    0.08030   0.08635   0.08686   0.09953   0.10867
 Alpha virt. eigenvalues --    0.12244   0.13035   0.13502   0.13668   0.14829
 Alpha virt. eigenvalues --    0.15230   0.15633   0.15686   0.16114   0.16713
 Alpha virt. eigenvalues --    0.17150   0.17304   0.17520   0.17602   0.17916
 Alpha virt. eigenvalues --    0.18190   0.18344   0.18489   0.18781   0.20193
 Alpha virt. eigenvalues --    0.20319   0.20768   0.21600   0.22390   0.23069
 Alpha virt. eigenvalues --    0.23266   0.23902   0.24057   0.24848   0.25638
 Alpha virt. eigenvalues --    0.26164   0.27041   0.27407   0.28528   0.28634
 Alpha virt. eigenvalues --    0.29326   0.30368   0.30786   0.32077   0.34482
 Alpha virt. eigenvalues --    0.35556   0.37037   0.37815   0.39282   0.40560
 Alpha virt. eigenvalues --    0.41235   0.44167   0.45768   0.47226   0.48331
 Alpha virt. eigenvalues --    0.49513   0.50383   0.50879   0.50922   0.51341
 Alpha virt. eigenvalues --    0.51901   0.52339   0.52854   0.53197   0.53467
 Alpha virt. eigenvalues --    0.54256   0.54470   0.54742   0.55293   0.55707
 Alpha virt. eigenvalues --    0.56842   0.57422   0.57660   0.57859   0.58340
 Alpha virt. eigenvalues --    0.59191   0.59657   0.60202   0.60879   0.61296
 Alpha virt. eigenvalues --    0.61505   0.62197   0.62378   0.62802   0.63537
 Alpha virt. eigenvalues --    0.64022   0.65147   0.65632   0.66912   0.67151
 Alpha virt. eigenvalues --    0.67689   0.68465   0.69434   0.70124   0.70663
 Alpha virt. eigenvalues --    0.70873   0.71731   0.71863   0.74727   0.74994
 Alpha virt. eigenvalues --    0.75533   0.76322   0.76960   0.77317   0.77689
 Alpha virt. eigenvalues --    0.78773   0.79218   0.80201   0.81050   0.81293
 Alpha virt. eigenvalues --    0.81469   0.81719   0.82652   0.83229   0.83421
 Alpha virt. eigenvalues --    0.84364   0.84553   0.85185   0.86216   0.86638
 Alpha virt. eigenvalues --    0.87090   0.87300   0.88310   0.88459   0.88758
 Alpha virt. eigenvalues --    0.89134   0.89812   0.90634   0.90829   0.90964
 Alpha virt. eigenvalues --    0.91111   0.91823   0.91946   0.93937   0.94143
 Alpha virt. eigenvalues --    0.94529   0.94913   0.95027   0.95800   0.96314
 Alpha virt. eigenvalues --    0.96873   0.99316   1.00604   1.02272   1.04025
 Alpha virt. eigenvalues --    1.05735   1.06002   1.06562   1.08037   1.08940
 Alpha virt. eigenvalues --    1.09640   1.11083   1.12494   1.14115   1.14601
 Alpha virt. eigenvalues --    1.14958   1.16660   1.17821   1.18251   1.20344
 Alpha virt. eigenvalues --    1.21037   1.22734   1.24376   1.24583   1.25634
 Alpha virt. eigenvalues --    1.27013   1.28625   1.29167   1.29402   1.30223
 Alpha virt. eigenvalues --    1.31294   1.31600   1.32338   1.33421   1.34494
 Alpha virt. eigenvalues --    1.35099   1.35684   1.37764   1.37952   1.39555
 Alpha virt. eigenvalues --    1.40972   1.42055   1.43030   1.43466   1.44158
 Alpha virt. eigenvalues --    1.45266   1.45580   1.46485   1.47322   1.47499
 Alpha virt. eigenvalues --    1.49083   1.51401   1.54852   1.55349   1.55940
 Alpha virt. eigenvalues --    1.57657   1.60284   1.61847   1.62440   1.63967
 Alpha virt. eigenvalues --    1.69695   1.70196   1.72266   1.72570   1.74354
 Alpha virt. eigenvalues --    1.74913   1.75473   1.75683   1.76076   1.76486
 Alpha virt. eigenvalues --    1.77054   1.77943   1.78751   1.79850   1.80094
 Alpha virt. eigenvalues --    1.80613   1.82765   1.82931   1.84083   1.84317
 Alpha virt. eigenvalues --    1.85717   1.85817   1.86820   1.87009   1.87716
 Alpha virt. eigenvalues --    1.89142   1.89564   1.90377   1.90552   1.91999
 Alpha virt. eigenvalues --    1.92553   1.93122   1.94619   1.94904   1.95018
 Alpha virt. eigenvalues --    1.95722   1.96437   1.97710   1.97790   2.00303
 Alpha virt. eigenvalues --    2.00860   2.01160   2.02372   2.03616   2.04503
 Alpha virt. eigenvalues --    2.04986   2.06144   2.06317   2.06944   2.08671
 Alpha virt. eigenvalues --    2.09486   2.10985   2.11196   2.11901   2.12270
 Alpha virt. eigenvalues --    2.12492   2.12778   2.13863   2.15120   2.15535
 Alpha virt. eigenvalues --    2.15796   2.16319   2.16592   2.18021   2.19104
 Alpha virt. eigenvalues --    2.19994   2.20568   2.21330   2.22611   2.23280
 Alpha virt. eigenvalues --    2.24851   2.25602   2.26464   2.26665   2.27602
 Alpha virt. eigenvalues --    2.27972   2.28440   2.30051   2.31311   2.33496
 Alpha virt. eigenvalues --    2.33587   2.34022   2.34783   2.35315   2.37018
 Alpha virt. eigenvalues --    2.37436   2.38861   2.39193   2.39746   2.41053
 Alpha virt. eigenvalues --    2.41891   2.42674   2.43168   2.43637   2.45060
 Alpha virt. eigenvalues --    2.45667   2.45761   2.46956   2.48708   2.48981
 Alpha virt. eigenvalues --    2.49971   2.51679   2.51884   2.53714   2.53958
 Alpha virt. eigenvalues --    2.54332   2.54644   2.56065   2.56927   2.57201
 Alpha virt. eigenvalues --    2.57425   2.59668   2.60046   2.60339   2.62316
 Alpha virt. eigenvalues --    2.63114   2.63421   2.64926   2.65273   2.66619
 Alpha virt. eigenvalues --    2.68227   2.68584   2.69235   2.70140   2.71017
 Alpha virt. eigenvalues --    2.72619   2.72972   2.73288   2.74574   2.74791
 Alpha virt. eigenvalues --    2.75995   2.77341   2.78299   2.78861   2.80263
 Alpha virt. eigenvalues --    2.81021   2.82708   2.83471   2.84332   2.86028
 Alpha virt. eigenvalues --    2.87175   2.87777   2.88183   2.88438   2.89612
 Alpha virt. eigenvalues --    2.89995   2.90669   2.91016   2.91360   2.92401
 Alpha virt. eigenvalues --    2.92986   2.94452   2.94858   2.99692   3.01402
 Alpha virt. eigenvalues --    3.04713   3.05492   3.07209   3.09412   3.11743
 Alpha virt. eigenvalues --    3.14356   3.17723   3.20780   3.21006   3.22754
 Alpha virt. eigenvalues --    3.23817   3.24893   3.28068   3.30036   3.30430
 Alpha virt. eigenvalues --    3.31582   3.32643   3.33372   3.39208   3.41291
 Alpha virt. eigenvalues --    3.43218   3.43756   3.44633   3.45279   3.46256
 Alpha virt. eigenvalues --    3.47081   3.47552   3.48145   3.51171   3.52660
 Alpha virt. eigenvalues --    3.54538   3.58674   3.60595   3.63559   3.72953
 Alpha virt. eigenvalues --    3.81851   4.04593   4.09255   4.13596   4.13718
 Alpha virt. eigenvalues --    4.15862   4.16034   4.17720   4.26635   4.27063
 Alpha virt. eigenvalues --    4.34328   4.35191   4.39176   4.42669   4.42886
 Alpha virt. eigenvalues --    4.46372   4.49809   4.51778   4.57946   4.59000
 Alpha virt. eigenvalues --    4.65514   4.70975   4.73629   4.74657   4.77744
 Alpha virt. eigenvalues --    4.88498   4.93481
          Condensed to atoms (all electrons):
 Mulliken charges:
               1
     1  C    0.224481
     2  C    0.345405
     3  C   -0.100423
     4  C   -0.135304
     5  C   -0.146417
     6  C    0.033941
     7  C    0.494721
     8  H    0.131678
     9  H    0.115797
    10  H    0.120195
    11  N   -0.660229
    12  C    0.297632
    13  C    0.004447
    14  C   -0.199895
    15  C    0.068525
    16  C   -0.182438
    17  C    0.042787
    18  H    0.080034
    19  H    0.075262
    20  C   -0.386144
    21  H    0.113023
    22  H    0.114100
    23  H    0.108993
    24  C   -0.376075
    25  H    0.110811
    26  H    0.111505
    27  H    0.101887
    28  O   -0.698303
    29  N   -0.706734
    30  C    0.189266
    31  H    0.188045
    32  N   -0.454364
    33  C    0.047114
    34  C   -0.172404
    35  C   -0.180802
    36  H    0.137080
    37  C   -0.188178
    38  H    0.112172
    39  H    0.114200
    40  C   -0.188965
    41  H    0.114514
    42  H    0.115224
    43  C   -0.181869
    44  H    0.103496
    45  H    0.104963
    46  H    0.103538
    47  H    0.105051
    48  H    0.098960
    49  H    0.099456
    50  H    0.294129
    51  H    0.336116
 Sum of Mulliken charges =  -0.00000
 Mulliken charges with hydrogens summed into heavy atoms:
               1
     1  C    0.224481
     2  C    0.345405
     3  C    0.031255
     4  C   -0.019507
     5  C   -0.026223
     6  C    0.033941
     7  C    0.494721
    11  N   -0.366100
    12  C    0.297632
    13  C    0.004447
    14  C   -0.119861
    15  C    0.068525
    16  C   -0.107176
    17  C    0.042787
    20  C   -0.050028
    24  C   -0.051872
    28  O   -0.698303
    29  N   -0.706734
    30  C    0.377311
    32  N   -0.118248
    33  C    0.184194
    34  C    0.053967
    35  C    0.048936
    37  C    0.020280
    40  C    0.019624
    43  C    0.016546
 Electronic spatial extent (au):  <R**2>=          14130.6606
 Charge=             -0.0000 electrons
 Dipole moment (field-independent basis, Debye):
    X=             14.4706    Y=             11.7286    Z=              0.1645  Tot=             18.6276
 Quadrupole moment (field-independent basis, Debye-Ang):
   XX=           -144.2293   YY=           -112.7819   ZZ=           -155.9545
   XY=              8.3435   XZ=              4.6402   YZ=              3.3481
 Traceless Quadrupole moment (field-independent basis, Debye-Ang):
   XX=             -6.5741   YY=             24.8733   ZZ=            -18.2993
   XY=              8.3435   XZ=              4.6402   YZ=              3.3481
 Octapole moment (field-independent basis, Debye-Ang**2):
  XXX=             91.3215  YYY=           -310.9627  ZZZ=           -165.0962  XYY=             -5.1274
  XXY=            -28.1078  XXZ=            -46.6449  XZZ=            -36.5910  YZZ=           -170.9972
  YYZ=            -41.6169  XYZ=              6.1732
 Hexadecapole moment (field-independent basis, Debye-Ang**3):
 XXXX=         -10101.1964 YYYY=          -7275.7195 ZZZZ=           -597.9227 XXXY=          -1866.0644
 XXXZ=             -3.4694 YYYX=          -1834.7060 YYYZ=            -58.4831 ZZZX=            -57.0403
 ZZZY=           -100.4158 XXYY=          -2712.6100 XXZZ=          -1789.1472 YYZZ=          -1571.8535
 XXYZ=              9.3241 YYXZ=              6.6483 ZZXY=           -642.0058
 N-N= 2.188636096851D+03 E-N=-6.913600823262D+03  KE= 1.082786552493D+03
 No NMR shielding tensors so no spin-rotation constants.
 Leave Link  601 at Mon Dec 17 10:00:52 2018, MaxMem=  1342177280 cpu:               2.3 elap:               0.2
 (Enter /gpfs/apps/hpc/Apps/Restricted/Gaussian/Rev_A.03/g16/l701.exe)
 ... and contract with generalized density number  0.
 Compute integral first derivatives.
 R6Disp: Adding Grimme-D3(BJ) dispersion energy 1st derivatives to the gradient.
 D1PCM: C-PCM CHGder 1st derivatives, ID1Alg=3 FixD1E=F DoIter=F DoCFld=F I1PDM=0.
 GePol: Maximum number of non-zero 1st derivatives   =     212
 Leave Link  701 at Mon Dec 17 10:00:54 2018, MaxMem=  1342177280 cpu:              23.8 elap:               1.6
 (Enter /gpfs/apps/hpc/Apps/Restricted/Gaussian/Rev_A.03/g16/l702.exe)
 L702 exits ... SP integral derivatives will be done elsewhere.
 Leave Link  702 at Mon Dec 17 10:00:54 2018, MaxMem=  1342177280 cpu:               0.6 elap:               0.1
 (Enter /gpfs/apps/hpc/Apps/Restricted/Gaussian/Rev_A.03/g16/l703.exe)
 Integral derivatives from FoFJK, PRISM(SPDF).
 Compute integral first derivatives, UseDBF=F ICtDFT=           0.
 Calling FoFJK, ICntrl=      2127 FMM=F ISym2X=0 I1Cent= 0 IOpClX= 0 NMat=1 NMatS=1 NMatT=0.
 FoFJK:  IHMeth= 1 ICntrl=    2127 DoSepK=F KAlg= 0 I1Cent=           0 FoldK=F
 IRaf=         0 NMat=       1 IRICut=       1 DoRegI=T DoRafI=F ISym2E= 0 IDoP0=0 IntGTp=1.
 FoFCou: FMM=F IPFlag=           0 FMFlag=      100000 FMFlg1=         800
         NFxFlg=           0 DoJE=F BraDBF=F KetDBF=F FulRan=T
         wScrn=  0.000000 ICntrl=      2127 IOpCl=  0 I1Cent=           0 NGrid=           0
         NMat0=    1 NMatS0=      1 NMatT0=    0 NMatD0=    1 NMtDS0=    0 NMtDT0=    0
 Symmetry not used in FoFCou.
 Leave Link  703 at Mon Dec 17 10:01:05 2018, MaxMem=  1342177280 cpu:             173.8 elap:              11.0
 (Enter /gpfs/apps/hpc/Apps/Restricted/Gaussian/Rev_A.03/g16/l716.exe)
 Dipole        = 5.69318027D+00 4.61439307D+00 6.47129373D-02
 -------------------------------------------------------------------
 Center     Atomic                   Forces (Hartrees/Bohr)
 Number     Number              X              Y              Z
 -------------------------------------------------------------------
      1        6           0.003311015   -0.002294987    0.000280165
      2        6          -0.003893919    0.007295085   -0.000413464
      3        6          -0.000254024   -0.008977876    0.000185485
      4        6           0.009509023    0.004514143    0.000242108
      5        6          -0.007783150    0.007047272   -0.000458941
      6        6           0.005884798   -0.003774315    0.000247426
      7        6          -0.007198113   -0.022888165    0.000428475
      8        1          -0.000281349   -0.000086871   -0.000020963
      9        1           0.000035602    0.000429811   -0.000004340
     10        1           0.000156437    0.000250039   -0.000014807
     11        7          -0.001968139    0.003403324   -0.000364865
     12        6           0.018417438   -0.012574694    0.002193641
     13        6          -0.022512166    0.010673612   -0.002459445
     14        6           0.009392562   -0.033066273    0.002260057
     15        6           0.002588994    0.017743585   -0.001243497
     16        6           0.004054374    0.005744555    0.000398899
     17        6           0.007125123    0.013146649    0.000059959
     18        1           0.001602699    0.000011612    0.000227732
     19        1          -0.000095320   -0.002197628    0.000117909
     20        6           0.004675765    0.002006287    0.000854182
     21        1           0.001575241   -0.002720350   -0.000103930
     22        1           0.001613796   -0.002813477    0.000601862
     23        1           0.000579684   -0.001454475    0.000060404
     24        6          -0.000143515    0.002108018   -0.000361429
     25        1          -0.001759129   -0.000371962    0.000317170
     26        1          -0.001902329   -0.000497288   -0.000547168
     27        1          -0.000812527   -0.001279575    0.000025091
     28        8          -0.022571155    0.018344218   -0.002494138
     29        7           0.007415138    0.008876040   -0.000007914
     30        6          -0.007567491    0.004305468   -0.000306262
     31        1           0.000143108    0.000066765   -0.000044954
     32        7           0.003360680   -0.005447063    0.000373894
     33        6          -0.001836871    0.000730200   -0.000280926
     34        6           0.000415805   -0.000293312    0.000659865
     35        6           0.000347123   -0.000438139   -0.000444531
     36        1           0.000248578   -0.000102659    0.000032916
     37        6          -0.000110811    0.000183073   -0.000329549
     38        1          -0.000008396    0.000033095   -0.000032989
     39        1          -0.000036114   -0.000011160    0.000025233
     40        6          -0.000107699    0.000222530    0.000245274
     41        1          -0.000050286    0.000019622    0.000025047
     42        1          -0.000032224    0.000006957    0.000012839
     43        6          -0.000021145   -0.000145185    0.000024940
     44        1           0.000233174   -0.000026813   -0.000047929
     45        1           0.000011492   -0.000029081    0.000046503
     46        1           0.000208261    0.000007448    0.000066363
     47        1           0.000012377   -0.000031623   -0.000023049
     48        1           0.000135794    0.000001899    0.000010837
     49        1          -0.000018717    0.000045570    0.000001545
     50        1          -0.000837851   -0.005687058   -0.000012887
     51        1          -0.001251640   -0.000006848   -0.000007842
 -------------------------------------------------------------------
 Cartesian Forces:  Max     0.033066273 RMS     0.005804290
 Leave Link  716 at Mon Dec 17 10:01:06 2018, MaxMem=  1342177280 cpu:               0.6 elap:               0.1
 (Enter /gpfs/apps/hpc/Apps/Restricted/Gaussian/Rev_A.03/g16/l103.exe)

 GradGradGradGradGradGradGradGradGradGradGradGradGradGradGradGradGradGrad
 Berny optimization.
 FormGI is forming the generalized inverse of G from B-inverse, IUseBI=4.
 Internal  Forces:  Max     0.029147496 RMS     0.003548223
 Search for a local minimum.
 Step number   1 out of a maximum of  305
 All quantities printed in internal units (Hartrees-Bohrs-Radians)
[...]
 3,0.00006129,0.06171985,-0.06279643,0.00401032,0.00055051,0.00032586,0
 .00049074,0.00016536,0.00094560,0.00089427,0.00030300,0.00011568,-0.00
 023544,-0.00020901,0.00062980,-0.00072516,-0.06446605,0.06328510,0.000
 00079,0.00000067,0.00000165,0.00000035,0.00000083,0.00000241,-0.000000
 28,0.00000069,-0.00000054,-0.00000060,-0.00000081,0.00000303,0.0000006
 2,-0.00000028,-0.00000034,-0.00000274,0.00000514,-0.00003302,0.0000006
 2,-0.00000186,0.00000317,0.00000008,-0.00000007,-0.00000111,0.00000014
 ,0.00000002,0.00000029,-0.00000013,0.00000014,-0.00000149,0.00000143,0
 .00000075,-0.00000030,0.00000025,-0.00000024,-0.00000047,0.,0.00000012
 ,0.00000065,0.00000048,0.00000015,0.00000091,-0.00000011,0.00000002,0.
 00000036,0.00000005,0.00000012,0.00000016,-0.00000001,0.00000016,0.000
 00024,-0.00000004,-0.00000012,-0.00000108,-0.00000001,-0.00000004,-0.0
 0000016,0.00000025,0.00000012,0.,-0.00000014,-0.00000005,-0.00000038,-
 0.00000018,-0.00000026,0.00000020,0.00000007,0.00000031,0.00000010,0.,
 0.00000005,-0.00000011,-0.00000014,0.00000002,0.00000008,0.00000005,-0
 .00000004,0.00000004,0.,-0.00000002,-0.00000002,-0.00000035,0.00000045
 ,0.00000061,0.00000428,0.00000242,-0.00000287,-0.00000686,-0.00000817,
 0.00000771,-0.00000802,0.00000943,-0.00000847,0.00001596,0.00007463,0.
 00043862,-0.00002333,-0.00014356,-0.00098336,-0.00113782,-0.00364101,-
 0.00419405,0.00160009,0.00227813,-0.00546243,0.00000099,0.00002333,0.0
 0009992,-0.02585996,0.00715211,-0.00160123,0.00034634,0.00002317,0.000
 00880,-0.00190560,-0.00000146,0.00001981,0.02944979,-0.00785924,0.0023
 1266,-0.00027181,-0.00008578,0.00000020,0.00203216,-0.00007381,0.00008
 847,-0.01384873,0.00395878,-0.04736048,0.00070045,0.00081042,0.0008043
 1,0.00068017,0.00013463,0.00100371,-0.00067292,-0.00053677,0.00097090,
 -0.00072698,0.00001953,0.00129104,0.01397028,-0.00303795,0.05329259,0.
 00000349,-0.00001686,0.00000058,-0.00000604,0.00000209,-0.00000010,-0.
 00000154,-0.00000870,0.00000027,0.00001207,0.00000500,-0.00000004,-0.0
 0001065,0.00001079,-0.00000034,0.00002335,0.00000735,0.00000080,-0.000
 01135,-0.00001375,0.00000047,0.00000056,-0.00000006,0.00000002,0.00000
 035,-0.00000042,0.00000005,-0.00000120,0.00000094,0.00000015,0.0000039
 8,0.00000289,-0.00000006,-0.00000618,0.00000242,-0.00000018,0.00000284
 ,0.00001013,-0.00000045,0.00000339,-0.00000457,0.00000022,0.00000382,0
 .00000419,-0.00000024,-0.00000492,0.00000112,-0.00000005,0.00000007,-0
 .00000335,0.00000014,-0.00000003,-0.00000053,0.00000005,0.00000004,0.0
 0000057,-0.00000002,0.00000053,0.00000025,0.,-0.00000032,-0.00000012,0
 .00000002,-0.00000047,0.00000038,-0.00000021,-0.00000048,0.00000038,0.
 00000017,-0.00000042,-0.00000011,0.,0.00000032,-0.00000004,-0.00000007
 ,0.00000032,-0.00000004,0.00000008,0.00000018,0.00000039,-0.00000002,0
 .00000547,-0.00000134,0.00000010,0.00000932,0.00001543,-0.00000067,-0.
 00003501,-0.00000023,-0.00000241,0.00000204,0.00000483,-0.00000162,-0.
 00000772,-0.00001910,-0.00000084,-0.00007303,0.00003164,0.00000056,0.0
 0091078,-0.00093040,0.00048818,0.00090146,-0.00104867,-0.00018646,0.00
 002358,0.00014342,-0.00001912,0.00012973,-0.01419875,0.00163818,-0.000
 17443,-0.00005489,-0.00005513,0.00015983,0.00017338,-0.00000493,0.0002
 3552,-0.01522855,0.00261274,-0.00003468,-0.00026938,-0.00001400,0.0001
 7110,0.00017410,-0.00003655,-0.05218667,0.01995455,-0.00287347,0.00023
 094,0.00044224,0.00035583,-0.00032592,-0.00165459,-0.00211616,0.000450
 22,0.00052847,-0.00042441,-0.00056954,-0.00105819,0.00264299,-0.001195
 87,0.03104803,-0.00434542,0.05137101,0.00000680,0.00004076,-0.00000095
 ,0.00000711,-0.00000423,0.00000028,-0.00000059,0.00002339,-0.00000094,
 -0.00003385,-0.00000765,-0.00000021,0.00002161,-0.00004455,0.00000112,
 -0.00009216,0.00003396,-0.00000626,0.00003177,0.00001782,-0.00000017,-
 0.00000092,0.00000069,-0.00000003,-0.00000293,0.00000203,-0.00000002,0
 .00000271,0.00000406,0.00000006,-0.00001278,0.00000804,-0.00000072,0.0
 0001554,-0.00000880,0.00000065,-0.00000806,-0.00001480,0.00000056,-0.0
 0000173,0.00000678,-0.00000038,-0.00000567,-0.00000722,0.00000033,0.00
 000818,-0.00000045,0.,-0.00000053,0.00000755,-0.00000031,-0.00000029,-
 0.00000044,0.00000003,0.00000009,-0.00000085,0.00000005,0.00000197,0.0
 0000079,-0.00000001,-0.00000112,-0.00000086,0.00000004,0.00000015,0.,0
 .00000030,0.00000015,-0.00000006,-0.00000032,0.00000066,0.00000045,-0.
 00000003,-0.00000095,-0.00000010,0.00000043,-0.00000097,-0.00000013,-0
 .00000045,-0.00000029,-0.00000055,0.00000003,-0.00001501,0.00000854,-0
 .00000068,-0.00002785,-0.00003969,0.00000077,0.00009312,-0.00017306,0.
 00000936,0.00001192,-0.00000810,0.00000313,-0.00019686,0.00007602,0.00
 001632,0.00014560,0.00025990,-0.00007625,0.00074745,0.00048277,0.00070
 417,0.00040853,0.00029601,-0.00052992,0.00012829,-0.00004167,-0.000000
 58,0.00133495,-0.01638657,0.00131073,-0.00102652,0.00021895,0.00031338
 ,-0.00007815,0.00032331,-0.00014804,0.00080332,-0.00811640,0.00171270,
 -0.00126201,0.00012434,-0.00008967,-0.00014914,0.00027387,0.00003641,0
 .01858383,-0.29519694,0.03517827,0.00008055,0.00019848,-0.00002724,-0.
 00171687,-0.00056813,-0.00299117,0.00007532,0.00068852,0.00042205,-0.0
 0086561,0.00079288,0.00165593,0.00105379,-0.00663011,0.00090716,-0.018
 05199,0.32332596,-0.00000095,-0.00000514,0.00000172,-0.00000076,0.0000
 0081,0.00000046,-0.00000006,-0.00000291,0.,0.00000439,0.00000082,0.000
 00083,-0.00000292,0.00000622,-0.00000160,0.00001221,-0.00000306,-0.000
 00863,-0.00000438,-0.00000331,0.00000067,0.00000013,-0.00000012,-0.000
 00028,0.00000044,-0.00000025,0.00000037,-0.00000026,-0.00000024,0.0000
 0057,0.00000215,-0.00000089,0.00000007,-0.00000199,0.00000101,-0.00000
 032,0.00000102,0.00000217,0.00000028,0.00000049,-0.00000090,0.00000063
 ,0.00000081,0.00000092,0.00000024,-0.00000115,0.00000016,0.00000011,0.
 00000004,-0.00000095,0.00000017,0.00000007,-0.00000009,-0.00000068,0.,
 0.00000011,-0.00000013,-0.00000003,0.00000003,-0.00000003,0.00000005,0
 .,-0.00000060,-0.00000031,-0.00000033,0.00000019,0.00000017,0.00000039
 ,0.00000026,-0.00000010,-0.00000004,-0.00000004,0.00000004,0.00000004,
 -0.00000002,0.00000017,-0.00000002,0.00000009,0.00000004,0.00000007,-0
 .00000004,0.00000185,-0.00000089,0.00000034,0.00000515,0.00000599,-0.0
 0000124,-0.00001296,0.00002297,0.00000686,-0.00000617,0.00000366,-0.00
 000298,0.00002911,0.00001399,0.00014204,-0.00001842,-0.00008892,-0.000
 31672,0.00116572,0.00002266,0.00097531,-0.00133605,0.00015158,0.001064
 76,-0.00001853,0.00000019,-0.00007321,0.00172435,-0.02803975,0.0023286
 3,-0.00010956,0.00071145,-0.00008880,0.00026281,0.00024281,-0.00008976
 ,-0.00194894,0.03032956,-0.00641205,0.00028208,-0.00061692,0.00026583,
 -0.00022202,-0.00033898,-0.00004182,-0.00277903,0.03511531,-0.05278726
 ,0.00077442,0.00091965,0.00108470,-0.00309014,-0.00303731,-0.00369636,
 -0.00061360,-0.00023109,0.00137916,0.00362965,0.00169325,-0.00480607,-
 0.00007289,0.00153305,-0.00069344,0.00234088,-0.03839895,0.06176346,0.
 00350406,0.00343749,-0.00009236,0.00983767,-0.00988258,0.00049584,0.00
 061559,0.00164086,0.00006066,-0.00145419,-0.00035091,-0.00000765,0.001
 18446,0.00003555,0.00002280,0.00099777,-0.00073802,0.00003721,-0.02434
 295,0.00389736,-0.00029251,-0.00039552,-0.00026162,0.00004074,0.000070
 19,0.00020758,-0.00000728,0.00004900,0.00007263,-0.00000249,-0.3138313
 4,-0.08272440,0.00142242,0.01942162,-0.00385383,0.00045208,-0.00305779
 ,-0.00526363,0.00017779,-0.00208723,0.00193760,-0.00009867,-0.00254492
 ,-0.00268306,0.00012503,0.00443442,-0.00007043,-0.00000130,-0.00368993
 ,0.00654939,-0.00037260,-0.00016846,0.00012354,-0.00000003,-0.00021020
 ,0.00023987,-0.00001065,0.00009872,-0.00023313,0.00001264,-0.00000956,
 0.00000043,0.00000088,0.00002384,0.00006434,-0.00003564,0.00002366,0.0
 0006919,0.00003057,-0.00048597,-0.00017211,-0.00001006,-0.00002007,-0.
 00012801,0.00005801,-0.00001941,-0.00014543,-0.00003703,-0.00002298,0.
 00007814,-0.00000007,-0.02155422,0.01771136,-0.00104301,0.00191482,0.0
 0175697,-0.00006452,-0.00029664,0.00081462,-0.00003814,0.00021479,-0.0
 0000371,0.00000527,0.00026849,-0.00013750,0.00001351,-0.00017176,0.000
 09114,-0.00002618,0.00004115,-0.00002830,0.00007161,0.00004599,-0.0000
 4245,-0.00004817,0.00003746,-0.00001986,0.00000611,-0.00000922,0.00002
 070,-0.00003587,-0.00000491,-0.00000147,0.00000025,-0.00000513,-0.0000
 0041,-0.00000480,-0.00001107,0.00002480,0.00002570,-0.00000914,-0.0000
 0709,0.00000040,-0.00000423,0.00000165,0.00000424,-0.00000183,-0.00001
 145,0.00000198,0.00002211,-0.00000180,-0.00000339,0.00000374,-0.000005
 71,0.00000363,0.00002061,0.00000004,0.00000472,0.00000495,-0.00000633,
 -0.00000189,0.00001084,0.00000187,-0.00000013,-0.00000197,0.00000162,-
 0.00000028,0.33182762,0.00240909,-0.00475069,0.00035806,-0.01382238,-0
 .00737976,-0.00017590,0.00065412,0.00267197,-0.00026178,-0.00188946,-0
 .00056142,-0.00001474,0.00159470,-0.00076251,0.00005301,-0.00085801,0.
 00080847,0.00000862,0.01413818,0.03087919,-0.00148661,-0.00001690,-0.0
 0022036,-0.00002181,0.00003437,0.00006485,-0.00000194,0.00003044,0.000
 03752,0.00000197,-0.08854789,-0.08982489,0.00305993,0.02711922,-0.0220
 8866,0.00129584,-0.00557443,-0.00743657,0.00020558,-0.00205573,0.00213
 166,-0.00013819,-0.00346206,-0.00290550,0.00013091,0.00546550,-0.00020
 252,0.00003174,-0.00378425,0.00898132,-0.00047514,-0.00047615,0.000263
 41,-0.00000451,-0.00022394,0.00039942,-0.00002529,0.00028746,-0.000264
 72,0.00002134,-0.00006033,0.00000035,0.00000059,-0.00006116,0.00018186
 ,-0.00008417,-0.00006441,0.00019178,0.00006898,-0.00072687,-0.00007275
 ,-0.00003302,0.00001249,-0.00019134,0.00011952,0.00001647,-0.00021985,
 -0.00008195,-0.00001265,0.00021203,-0.00000219,-0.00920913,0.02767660,
 -0.00285900,0.01125285,-0.00089987,0.00046024,0.00055995,-0.00041825,0
 .00003448,0.00002768,0.00003478,-0.00000127,0.00051443,0.00098475,-0.0
 0004463,-0.00005088,0.00015655,0.00000036,0.00002232,-0.00000960,0.000
 01531,0.00003716,-0.00001562,-0.00001374,-0.00000114,-0.00001573,0.000
 00150,-0.00000645,0.00000489,-0.00001077,-0.00000271,-0.00000338,0.000
 00207,-0.00000147,0.00000285,-0.00000269,-0.00000698,0.00001055,0.0000
 1180,-0.00000386,-0.00000364,-0.00000160,-0.00000168,0.00000249,0.0000
 0012,-0.00000054,-0.00000310,0.00000101,0.00000608,-0.00000007,-0.0000
 0165,0.00000237,-0.00000336,0.00000120,0.00000747,-0.00000013,0.000001
 68,0.00000236,-0.00000374,-0.00000007,0.00000454,0.00000059,-0.0000003
 5,-0.00000103,-0.00000060,-0.00000007,0.06797947,0.06291031,-0.0001136
 4,0.00025885,0.00277939,0.00041447,-0.00028550,-0.00911938,0.00012439,
 -0.00010215,-0.00084412,0.00005925,0.00001148,0.00015999,-0.00004576,0
 .00003053,-0.00023605,0.00001044,0.00001679,0.00144338,-0.00104919,-0.
 00150070,-0.00196232,0.00007167,-0.00010904,-0.00074071,-0.00000327,-0
 .00000029,0.00004187,-0.00000217,0.00000032,0.00004840,0.00214292,0.00
 303726,-0.01195241,-0.00107138,0.00097711,-0.00067522,0.00024397,0.000
 18720,-0.00148287,0.00006872,-0.00010322,-0.00059270,0.00013727,0.0001
 0790,0.00007879,-0.00020729,0.00003310,0.00031399,0.00012362,-0.000293
 33,0.00102387,0.00002224,-0.00001371,-0.00005469,0.00000612,-0.0000244
 2,-0.00017231,-0.00001362,0.00001465,0.00010800,0.00000338,-0.00000025
 ,-0.00000174,0.00002600,-0.00001739,-0.00000378,-0.00001720,-0.0000012
 9,-0.00001152,0.00002644,0.00000654,-0.00000898,-0.00001367,-0.0000584
 7,0.00000424,0.00000959,0.00007632,0.00000264,0.00000011,-0.00000700,0
 .00001995,0.00046107,-0.00239858,-0.00835397,-0.00057958,0.00031251,0.
 00455487,-0.00003451,0.00003393,0.00006348,0.00000292,-0.00000422,-0.0
 0008046,-0.00001960,-0.00005912,-0.00014518,-0.00000111,-0.00000336,0.
 00002038,-0.00000376,0.00000273,-0.00000039,0.00000014,-0.00000383,0.0
 0000036,0.00000035,0.00000077,0.00000087,0.00000044,-0.00000185,0.0000
 0102,0.00000062,-0.00000062,0.00000039,0.00000010,-0.00000152,-0.00000
 230,0.00000035,0.00000209,0.00000039,-0.00000046,0.00000188,-0.0000000
 4,0.00000028,0.00000021,-0.00000245,-0.00000015,0.00000014,0.00000155,
 0.00000004,0.00000033,-0.00000098,0.00000009,0.00000021,0.00000030,0.0
 0000011,-0.00000059,-0.00000083,-0.00000056,0.00000034,0.00000021,-0.0
 0000007,-0.00000016,-0.00000090,0.00000006,0.00000014,-0.00000027,-0.0
 0083537,-0.00015082,0.02552199,-0.00490207,0.01370821,-0.00066068,0.00
 378814,-0.00064664,0.00004696,0.00055717,0.00328201,-0.00010543,-0.003
 50962,-0.00163309,-0.00000896,0.00244589,-0.00364222,0.00020397,-0.008
 88387,0.00144474,-0.00005281,-0.00194428,-0.00819986,0.00033287,0.0000
 9085,-0.00013890,0.00001298,-0.00008686,-0.00003441,-0.00001294,0.0001
 1294,-0.00020244,0.00000198,0.00535912,-0.00048908,0.00009757,-0.00007
 866,0.00036775,-0.00001967,0.00001741,0.00014960,-0.00000769,0.0000907
 7,-0.00005904,0.00000618,0.00013118,0.00011483,-0.00000597,-0.00003962
 ,0.00013889,-0.00000756,0.00009771,-0.00000428,0.00000014,0.00021943,-
 0.00019517,-0.00012358,0.00001634,0.00003981,-0.00000207,0.00005646,-0
 .00000900,0.00000064,-0.00000891,-0.00000767,-0.00000010,-0.00001887,0
 .00003026,-0.00001044,-0.00001897,0.00003110,0.00000802,-0.00003184,0.
 00002915,-0.00000198,0.00002026,0.00000045,-0.00000411,0.00002061,0.00
 000065,0.00000483,0.00002089,0.00002309,-0.00000102,0.00020116,0.00042
 918,-0.00001829,0.00334856,0.00429812,-0.00012689,0.02960671,0.0093733
 2,0.00069336,-0.00153994,0.00478282,-0.00045881,-0.18578886,-0.1487773
 2,-0.00045809,-0.01129486,-0.01692364,0.00000273,-0.00180997,0.0006685
 8,-0.00097347,-0.00211034,0.00120115,0.00097340,0.00061921,-0.00036565
 ,0.00000902,0.00002758,-0.00024794,0.00058074,0.00009000,-0.00006921,-
 0.00007943,0.00052079,0.00048800,0.00016412,0.00005385,-0.00053779,-0.
 00056846,0.00000670,-0.00007853,0.00008357,0.00011614,0.00006880,-0.00
 009311,0.00013610,0.00002641,-0.00000766,-0.00017608,0.00006454,-0.000
 01410,-0.00001108,0.00003247,0.00000498,-0.00022263,0.00007226,-0.0000
 0269,0.00000214,0.00002720,-0.00001636,0.00000036,0.00000234,0.0000066
 3,-0.00000787,-0.00001217,0.00000324,-0.00026292,-0.00125627,0.0000552
 0,0.17497365,0.00435559,0.00574574,-0.00002072,0.00227237,-0.00104786,
 0.00009156,0.00040590,0.00207454,-0.00007141,-0.00239552,-0.00078500,-
 0.00000832,0.00160889,-0.00251019,0.00010711,-0.00597927,0.00112091,-0
 .00045571,-0.00037273,-0.00241174,0.00003960,0.00001098,-0.00006547,0.
 00000310,-0.00011245,0.00002778,-0.00000187,0.00007964,0.00010909,0.00
 000088,0.00137596,-0.00060172,0.00006341,0.00035821,-0.00002351,0.0000
 0125,-0.00024125,-0.00059127,0.00001827,-0.00036174,0.00020831,-0.0000
 1875,-0.00010767,-0.00024226,0.00001525,0.00025177,-0.00001662,-0.0000
 0001,0.00003215,0.00018590,-0.00000897,0.00012358,-0.00010811,-0.00015
 323,0.00001521,-0.00000565,0.00000020,-0.00001934,-0.00003199,-0.00000
 022,0.00002168,-0.00001165,0.00000004,0.00002134,-0.00000219,-0.000002
 98,0.00002160,-0.00000198,0.00000281,0.00001436,0.00000298,0.00000029,
 -0.00000332,0.00000267,-0.00000133,-0.00000340,0.00000321,0.00000069,-
 0.00000335,-0.00000493,0.00000020,-0.00022519,0.00024156,-0.00001222,0
 .00237745,-0.00394523,0.00009511,-0.01043232,-0.03373326,0.00078908,0.
 00273366,-0.00111208,0.00050110,-0.14853433,-0.26527003,0.00311205,0.0
 0464066,0.01250108,0.00008257,0.00158750,-0.00018025,0.00071332,0.0021
 7660,-0.00033567,-0.00074434,0.00089132,0.00080858,-0.00013918,0.00002
 237,0.00015592,-0.00058247,-0.00004340,0.00002450,0.00001772,0.0003601
 3,0.00054369,0.00000443,0.00000988,0.00045581,0.00061493,-0.00001592,0
 .00004616,0.00002258,-0.00024160,-0.00015711,0.00017697,-0.00011257,-0
 .00015093,0.00003768,0.00028265,-0.00004886,-0.00005399,0.00004605,-0.
 00005631,0.00002204,0.00034203,-0.00004316,0.00007786,0.00003768,-0.00
 006865,-0.00000884,0.00007796,0.00002087,-0.00001161,0.00000064,0.0000
 3607,-0.00000775,0.00001501,-0.00034959,0.00002808,0.14263458,0.289597
 88,-0.00048026,0.00011589,0.00019220,-0.00000802,0.00006626,0.00057972
 ,-0.00001111,0.00000107,-0.00009143,-0.00001131,-0.00001295,0.00015886
 ,0.00002377,-0.00003080,-0.00060225,0.00003854,-0.00012035,-0.00525180
 ,0.00001014,-0.00009186,-0.00107866,0.00000065,-0.00000079,-0.00004065
 ,-0.00000267,0.00000595,0.00015134,-0.00000044,-0.00000450,0.00006986,
 0.00001857,0.00001805,0.00036630,-0.00000042,-0.00000227,-0.00005629,0
 .00000504,0.00000493,-0.00011376,0.00000819,-0.00000711,-0.00011872,0.
 00000260,0.00000816,0.00003757,-0.00000119,0.00000116,-0.00000379,0.00
 000085,-0.00000135,-0.00001288,-0.00006687,-0.00006214,0.00045942,-0.0
 0000020,0.00000051,0.00000643,0.00000100,0.00000147,-0.00001310,-0.000
 00030,0.00000176,0.00000786,0.00000015,0.00000488,-0.00000151,-0.00000
 067,-0.00000431,-0.00000144,-0.00000012,0.00000049,-0.00000008,0.00000
 144,-0.00000062,-0.00000111,-0.00000150,0.00000035,-0.00000139,0.00000
 015,0.00000011,0.00000004,0.00000173,0.00000369,0.00002902,-0.00014229
 ,0.00012506,-0.00457970,0.00143378,0.00190141,0.00373600,-0.00045021,0
 .00048508,0.00928135,-0.00005698,0.00287678,-0.02610619,-0.00064768,-0
 .00077466,-0.00058768,0.00146256,-0.00033200,-0.00072025,-0.00223586,0
 .00019409,-0.00087470,-0.00018362,-0.00043373,0.00055734,0.00016078,-0
 .00022517,-0.00023007,-0.00028579,-0.00002302,0.00029869,0.00029397,0.
 00017396,0.00003144,-0.00010336,-0.00008413,-0.00035887,0.00032233,0.0
 0004121,0.00029599,0.00045997,0.00048127,-0.00021181,-0.00001386,0.000
 01406,-0.00004311,0.00005202,-0.00000080,-0.00003460,0.00004749,0.0000
 0713,-0.00000675,-0.00013426,-0.00000048,-0.00006060,-0.00004221,0.000
 01304,-0.00001067,-0.00001021,-0.00000545,-0.00000637,0.00000045,-0.00
 000114,0.00000458,-0.00000403,0.00000804,0.00025628,0.00054929,-0.0043
 3624,0.02469994\\-0.00000344,-0.00000270,0.00000127,-0.00000354,-0.000
 00562,0.00000186,-0.00000620,-0.00000657,0.00000260,-0.00000867,-0.000
 00502,0.00000267,-0.00000801,-0.00000238,0.00000186,-0.00000569,-0.000
 00067,0.00000108,0.00000067,-0.00000451,0.00000110,-0.00000656,-0.0000
 0886,0.00000326,-0.00001049,-0.00000574,0.00000315,-0.00000988,-0.0000
 0086,0.00000181,-0.00000086,-0.00000671,0.00000190,0.00000478,-0.00000
 825,0.00000130,0.00000378,-0.00000540,0.00000068,0.00000511,-0.0000027
 3,-0.00000024,0.00000813,-0.00000361,-0.00000050,0.00000934,-0.0000060
 3,-0.00000004,0.00000748,-0.00000800,0.00000072,0.00000467,-0.00000096
 ,-0.00000051,0.00001130,-0.00000654,-0.00000025,0.00000991,-0.00000115
 ,-0.00000137,0.00000923,0.00000082,-0.00000166,0.00001192,-0.00000144,
 -0.00000155,0.00001118,-0.00000087,-0.00000164,0.00000844,-0.00001116,
 0.00000139,0.00000808,-0.00001252,0.00000175,0.00000741,-0.00001191,0.
 00000175,0.00001067,-0.00001125,0.00000096,0.00000271,-0.00000979,0.00
 000192,-0.00000062,-0.00000245,0.00000060,-0.00000499,0.00000177,0.000
 00056,-0.00000700,0.00000307,0.00000035,-0.00000268,0.00000289,-0.0000
 0033,-0.00000210,0.00000601,-0.00000103,-0.00000387,0.00000759,-0.0000
 0123,-0.00000339,0.00000665,-0.00000121,-0.00000006,0.00000597,-0.0000
 0143,-0.00000318,0.00001056,-0.00000204,-0.00000597,0.00000732,-0.0000
 0084,-0.00000301,0.00000698,-0.00000121,-0.00000258,0.00000974,-0.0000
 0191,-0.00000536,0.00000641,-0.00000061,-0.00000222,0.00000537,-0.0000
 0091,-0.00000399,0.00001153,-0.00000221,-0.00000423,0.00001190,-0.0000
 0224,-0.00000092,0.00001089,-0.00000253,-0.00000333,0.00001029,-0.0000
 0201,-0.00000040,0.00000996,-0.00000238,-0.00000351,0.00001365,-0.0000
 0280,-0.00000628,0.00001147,-0.00000177,-0.00000034,-0.00000863,0.0000
 0218,-0.00000142,0.00000148,-0.00000026\\\@


 IF YOU PERCEIVE THAT THERE ARE FOUR POSSIBLE WAYS IN
 WHICH A PROCEDURE CAN GO WRONG AND CIRCUMVENT THESE, 
 THEN A FIFTH WAY WILL DEVELOP.

                              -- MURPHY'S TWELFTH LAW
 Job cpu time:       0 days  3 hours 34 minutes 15.1 seconds.
 Elapsed time:       0 days  0 hours 13 minutes 28.4 seconds.
 File lengths (MBytes):  RWF=   1696 Int=      0 D2E=      0 Chk=     52 Scr=      8
 Normal termination of Gaussian 16 at Mon Dec 17 10:52:53 2018.
