 Entering Gaussian System, Link 0=g16
 Input=cyclohexyl-diBIP-neutral.com
 Output=cyclohexyl-diBIP-neutral.log
 Initial command:
 /gpfs/apps/hpc/Apps/Restricted/Gaussian/Rev_A.03/g16/l1.exe "/gpfs/scratch60/fas/hammes_schiffer/jg2487/c44n01/Gau-177786.inp" -scrdir="/gpfs/scratch60/fas/hammes_schiffer/jg2487/c44n01/"
 Entering Link 1 = /gpfs/apps/hpc/Apps/Restricted/Gaussian/Rev_A.03/g16/l1.exe PID=    177787.
  
 Copyright (c) 1988,1990,1992,1993,1995,1998,2003,2009,2016,
            Gaussian, Inc.  All Rights Reserved.
  
 This is part of the Gaussian(R) 16 program.  It is based on
 the Gaussian(R) 09 system (copyright 2009, Gaussian, Inc.),
 the Gaussian(R) 03 system (copyright 2003, Gaussian, Inc.),
 the Gaussian(R) 98 system (copyright 1998, Gaussian, Inc.),
 the Gaussian(R) 94 system (copyright 1995, Gaussian, Inc.),
 the Gaussian 92(TM) system (copyright 1992, Gaussian, Inc.),
 the Gaussian 90(TM) system (copyright 1990, Gaussian, Inc.),
 the Gaussian 88(TM) system (copyright 1988, Gaussian, Inc.),
 the Gaussian 86(TM) system (copyright 1986, Carnegie Mellon
 University), and the Gaussian 82(TM) system (copyright 1983,
 Carnegie Mellon University). Gaussian is a federally registered
 trademark of Gaussian, Inc.
  
 This software contains proprietary and confidential information,
 including trade secrets, belonging to Gaussian, Inc.
  
 This software is provided under written license and may be
 used, copied, transmitted, or stored only in accord with that
 written license.
  
 The following legend is applicable only to US Government
 contracts under FAR:
  
                    RESTRICTED RIGHTS LEGEND
  
 Use, reproduction and disclosure by the US Government is
 subject to restrictions as set forth in subparagraphs (a)
 and (c) of the Commercial Computer Software - Restricted
 Rights clause in FAR 52.227-19.
  
 Gaussian, Inc.
 340 Quinnipiac St., Bldg. 40, Wallingford CT 06492
  
  
 ---------------------------------------------------------------
 Warning -- This program may not be used in any manner that
 competes with the business of Gaussian, Inc. or will provide
 assistance to any competitor of Gaussian, Inc.  The licensee
 of this program is prohibited from giving any competitor of
 Gaussian, Inc. access to this program.  By using this program,
 the user acknowledges that Gaussian, Inc. is engaged in the
 business of creating and licensing software in the field of
 computational chemistry and represents and warrants to the
 licensee that it is not a competitor of Gaussian, Inc. and that
 it will not use this program in any manner prohibited above.
 ---------------------------------------------------------------
  

 Cite this work as:
 Gaussian 16, Revision A.03,
 M. J. Frisch, G. W. Trucks, H. B. Schlegel, G. E. Scuseria, 
 M. A. Robb, J. R. Cheeseman, G. Scalmani, V. Barone, 
 G. A. Petersson, H. Nakatsuji, X. Li, M. Caricato, A. V. Marenich, 
 J. Bloino, B. G. Janesko, R. Gomperts, B. Mennucci, H. P. Hratchian, 
 J. V. Ortiz, A. F. Izmaylov, J. L. Sonnenberg, D. Williams-Young, 
 F. Ding, F. Lipparini, F. Egidi, J. Goings, B. Peng, A. Petrone, 
 T. Henderson, D. Ranasinghe, V. G. Zakrzewski, J. Gao, N. Rega, 
 G. Zheng, W. Liang, M. Hada, M. Ehara, K. Toyota, R. Fukuda, 
 J. Hasegawa, M. Ishida, T. Nakajima, Y. Honda, O. Kitao, H. Nakai, 
 T. Vreven, K. Throssell, J. A. Montgomery, Jr., J. E. Peralta, 
 F. Ogliaro, M. J. Bearpark, J. J. Heyd, E. N. Brothers, K. N. Kudin, 
 V. N. Staroverov, T. A. Keith, R. Kobayashi, J. Normand, 
 K. Raghavachari, A. P. Rendell, J. C. Burant, S. S. Iyengar, 
 J. Tomasi, M. Cossi, J. M. Millam, M. Klene, C. Adamo, R. Cammi, 
 J. W. Ochterski, R. L. Martin, K. Morokuma, O. Farkas, 
 J. B. Foresman, and D. J. Fox, Gaussian, Inc., Wallingford CT, 2016.
 
 ******************************************
 Gaussian 16:  ES64L-G16RevA.03 25-Dec-2016
                14-Dec-2018 
 ******************************************
 %chk=cyclohexyl-diBIP-neutral.chk
 %mem=10GB
 %nprocshared=16
 Will use up to   16 processors via shared memory.
 ----------------------------------------------------------------
 #p freq(ReadFC,InternalModes) Geom(AllCheck) NoSymm scale=0.9649
 ----------------------------------------------------------------
 1/18=20,29=7,38=1,114=964900/1,3;
 2/9=110,12=2,15=1,40=1/2;
 7/8=21,25=11,30=1/16;
 99/5=2/99;
 Leave Link    1 at Fri Dec 14 13:56:08 2018, MaxMem=  1342177280 cpu:               8.3 elap:               0.6
 (Enter /gpfs/apps/hpc/Apps/Restricted/Gaussian/Rev_A.03/g16/l101.exe)
 Structure from the checkpoint file:  "cyclohexyl-diBIP-neutral.chk"
 ------------------------------------------
 cyclohexylimine diBIP neutral optimization
 ------------------------------------------
 Charge =  0 Multiplicity = 1
 Redundant internal coordinates found in file.  (old form).
 C,0,1.590666,1.138707,0.162928
 C,0,0.373043,1.856852,0.147552
 C,0,0.391952,3.254227,0.055313
 C,0,1.631138,3.886602,-0.030373
 C,0,2.83148,3.156985,-0.021237
 C,0,2.84634,1.759436,0.077371
 C,0,-0.137795,-0.241657,0.286994
 H,0,-0.531151,3.820922,0.046229
 H,0,1.673901,4.966625,-0.106266
 H,0,3.776802,3.684248,-0.092119
 C,0,-2.303392,-1.426802,0.304732
 C,0,-3.115067,-2.583172,0.345717
 C,0,-2.524882,-3.844579,0.470779
 C,0,-1.133291,-3.904945,0.546641
 C,0,-0.336307,-2.751198,0.493326
 C,0,-0.902478,-1.474733,0.367831
 C,0,-4.445752,-0.871484,0.151286
 H,0,-3.131703,-4.740933,0.505804
 H,0,-0.649223,-4.86902,0.647304
 H,0,0.740769,-2.853236,0.556223
 N,0,-0.688965,0.969508,0.225907
 C,0,-6.899459,-0.724773,-0.133511
 C,0,-5.650259,-0.072205,0.006475
 C,0,-5.60107,1.33207,-0.008362
 C,0,-6.75045,2.098156,-0.16896
 C,0,-7.972471,1.423602,-0.319002
 C,0,-8.07202,0.034075,-0.302159
 H,0,-4.645204,1.830895,0.112751
 H,0,-8.882137,2.003705,-0.444193
 C,0,-6.682397,3.605367,-0.187885
 H,0,-6.141817,3.989278,0.682096
 H,0,-6.157916,3.968719,-1.077424
 H,0,-7.682745,4.042508,-0.187436
 C,0,-9.392835,-0.669028,-0.449497
 H,0,-9.365516,-1.399221,-1.263202
 H,0,-9.650709,-1.222131,0.459652
 H,0,-10.189404,0.04854,-0.651044
 O,0,-7.019214,-2.071011,-0.11363
 H,0,-6.107519,-2.452421,0.026247
 N,0,-3.170652,-0.366896,0.186456
 N,0,-4.444236,-2.203276,0.246256
 H,0,-2.847845,0.592478,0.127749
 N,0,1.23589,-0.183667,0.255459
 H,0,1.922418,-0.928399,0.266557
 C,0,4.09066,0.998606,0.084638
 H,0,5.006887,1.59296,-0.005315
 N,0,4.106268,-0.280107,0.184392
 C,0,5.424676,-0.937608,0.160254
 C,0,6.140885,-0.725357,-1.183987
 C,0,6.323637,-0.498676,1.328597
 H,0,5.235319,-2.011242,0.273501
 C,0,7.495435,-1.440759,-1.217865
 H,0,6.292352,0.351242,-1.328472
 H,0,5.497344,-1.071879,-1.998569
 C,0,7.676817,-1.217522,1.291879
 H,0,6.486073,0.58324,1.261445
 H,0,5.808828,-0.68955,2.275262
 C,0,8.387072,-1.006007,-0.049727
 H,0,7.992645,-1.244482,-2.173245
 H,0,7.333551,-2.524421,-1.160669
 H,0,8.303442,-0.866336,2.117926
 H,0,7.518966,-2.292188,1.449048
 H,0,9.332846,-1.556423,-0.069434
 H,0,8.633979,0.057283,-0.162847
 Recover connectivity data from disk.
 ITRead=  0  0  0  0  0  0  0  0  0  0  0  0  0  0  0  0  0  0  0  0
 ITRead=  0  0  0  0  0  0  0  0  0  0  0  0  0  0  0  0  0  0  0  0
 ITRead=  0  0  0  0  0  0  0  0  0  0  0  0  0  0  0  0  0  0  0  0
 ITRead=  0  0  0  0
 MicOpt= -1 -1 -1 -1 -1 -1 -1 -1 -1 -1 -1 -1 -1 -1 -1 -1 -1 -1 -1 -1
 MicOpt= -1 -1 -1 -1 -1 -1 -1 -1 -1 -1 -1 -1 -1 -1 -1 -1 -1 -1 -1 -1
 MicOpt= -1 -1 -1 -1 -1 -1 -1 -1 -1 -1 -1 -1 -1 -1 -1 -1 -1 -1 -1 -1
 MicOpt= -1 -1 -1 -1
 NAtoms=     64 NQM=       64 NQMF=       0 NMMI=      0 NMMIF=      0
                NMic=       0 NMicF=      0.
                    Isotopes and Nuclear Properties:
 (Nuclear quadrupole moments (NQMom) in fm**2, nuclear magnetic moments (NMagM)
  in nuclear magnetons)

  Atom         1           2           3           4           5           6           7           8           9          10
 IAtWgt=          12          12          12          12          12          12          12           1           1           1
 AtmWgt=  12.0000000  12.0000000  12.0000000  12.0000000  12.0000000  12.0000000  12.0000000   1.0078250   1.0078250   1.0078250
 NucSpn=           0           0           0           0           0           0           0           1           1           1
 AtZEff=   3.6000000   3.6000000   3.6000000   3.6000000   3.6000000   3.6000000   3.6000000   1.0000000   1.0000000   1.0000000
 NQMom=    0.0000000   0.0000000   0.0000000   0.0000000   0.0000000   0.0000000   0.0000000   0.0000000   0.0000000   0.0000000
 NMagM=    0.0000000   0.0000000   0.0000000   0.0000000   0.0000000   0.0000000   0.0000000   2.7928460   2.7928460   2.7928460
 AtZNuc=   6.0000000   6.0000000   6.0000000   6.0000000   6.0000000   6.0000000   6.0000000   1.0000000   1.0000000   1.0000000

  Atom        11          12          13          14          15          16          17          18          19          20
 IAtWgt=          12          12          12          12          12          12          12           1           1           1
 AtmWgt=  12.0000000  12.0000000  12.0000000  12.0000000  12.0000000  12.0000000  12.0000000   1.0078250   1.0078250   1.0078250
 NucSpn=           0           0           0           0           0           0           0           1           1           1
 AtZEff=   3.6000000   3.6000000   3.6000000   3.6000000   3.6000000   3.6000000   3.6000000   1.0000000   1.0000000   1.0000000
 NQMom=    0.0000000   0.0000000   0.0000000   0.0000000   0.0000000   0.0000000   0.0000000   0.0000000   0.0000000   0.0000000
 NMagM=    0.0000000   0.0000000   0.0000000   0.0000000   0.0000000   0.0000000   0.0000000   2.7928460   2.7928460   2.7928460
 AtZNuc=   6.0000000   6.0000000   6.0000000   6.0000000   6.0000000   6.0000000   6.0000000   1.0000000   1.0000000   1.0000000

  Atom        21          22          23          24          25          26          27          28          29          30
 IAtWgt=          14          12          12          12          12          12          12           1           1          12
 AtmWgt=  14.0030740  12.0000000  12.0000000  12.0000000  12.0000000  12.0000000  12.0000000   1.0078250   1.0078250  12.0000000
 NucSpn=           2           0           0           0           0           0           0           1           1           0
 AtZEff=   4.5500000   3.6000000   3.6000000   3.6000000   3.6000000   3.6000000   3.6000000   1.0000000   1.0000000   3.6000000
 NQMom=    2.0440000   0.0000000   0.0000000   0.0000000   0.0000000   0.0000000   0.0000000   0.0000000   0.0000000   0.0000000
 NMagM=    0.4037610   0.0000000   0.0000000   0.0000000   0.0000000   0.0000000   0.0000000   2.7928460   2.7928460   0.0000000
 AtZNuc=   7.0000000   6.0000000   6.0000000   6.0000000   6.0000000   6.0000000   6.0000000   1.0000000   1.0000000   6.0000000

  Atom        31          32          33          34          35          36          37          38          39          40
 IAtWgt=           1           1           1          12           1           1           1          16           1          14
 AtmWgt=   1.0078250   1.0078250   1.0078250  12.0000000   1.0078250   1.0078250   1.0078250  15.9949146   1.0078250  14.0030740
 NucSpn=           1           1           1           0           1           1           1           0           1           2
 AtZEff=   1.0000000   1.0000000   1.0000000   3.6000000   1.0000000   1.0000000   1.0000000   5.6000000   1.0000000   4.5500000
 NQMom=    0.0000000   0.0000000   0.0000000   0.0000000   0.0000000   0.0000000   0.0000000   0.0000000   0.0000000   2.0440000
 NMagM=    2.7928460   2.7928460   2.7928460   0.0000000   2.7928460   2.7928460   2.7928460   0.0000000   2.7928460   0.4037610
 AtZNuc=   1.0000000   1.0000000   1.0000000   6.0000000   1.0000000   1.0000000   1.0000000   8.0000000   1.0000000   7.0000000

  Atom        41          42          43          44          45          46          47          48          49          50
 IAtWgt=          14           1          14           1          12           1          14          12          12          12
 AtmWgt=  14.0030740   1.0078250  14.0030740   1.0078250  12.0000000   1.0078250  14.0030740  12.0000000  12.0000000  12.0000000
 NucSpn=           2           1           2           1           0           1           2           0           0           0
 AtZEff=   4.5500000   1.0000000   4.5500000   1.0000000   3.6000000   1.0000000   4.5500000   3.6000000   3.6000000   3.6000000
 NQMom=    2.0440000   0.0000000   2.0440000   0.0000000   0.0000000   0.0000000   2.0440000   0.0000000   0.0000000   0.0000000
 NMagM=    0.4037610   2.7928460   0.4037610   2.7928460   0.0000000   2.7928460   0.4037610   0.0000000   0.0000000   0.0000000
 AtZNuc=   7.0000000   1.0000000   7.0000000   1.0000000   6.0000000   1.0000000   7.0000000   6.0000000   6.0000000   6.0000000

  Atom        51          52          53          54          55          56          57          58          59          60
 IAtWgt=           1          12           1           1          12           1           1          12           1           1
 AtmWgt=   1.0078250  12.0000000   1.0078250   1.0078250  12.0000000   1.0078250   1.0078250  12.0000000   1.0078250   1.0078250
 NucSpn=           1           0           1           1           0           1           1           0           1           1
 AtZEff=   1.0000000   3.6000000   1.0000000   1.0000000   3.6000000   1.0000000   1.0000000   3.6000000   1.0000000   1.0000000
 NQMom=    0.0000000   0.0000000   0.0000000   0.0000000   0.0000000   0.0000000   0.0000000   0.0000000   0.0000000   0.0000000
 NMagM=    2.7928460   0.0000000   2.7928460   2.7928460   0.0000000   2.7928460   2.7928460   0.0000000   2.7928460   2.7928460
 AtZNuc=   1.0000000   6.0000000   1.0000000   1.0000000   6.0000000   1.0000000   1.0000000   6.0000000   1.0000000   1.0000000

  Atom        61          62          63          64
 IAtWgt=           1           1           1           1
 AtmWgt=   1.0078250   1.0078250   1.0078250   1.0078250
 NucSpn=           1           1           1           1
 AtZEff=   1.0000000   1.0000000   1.0000000   1.0000000
 NQMom=    0.0000000   0.0000000   0.0000000   0.0000000
 NMagM=    2.7928460   2.7928460   2.7928460   2.7928460
 AtZNuc=   1.0000000   1.0000000   1.0000000   1.0000000
 Leave Link  101 at Fri Dec 14 13:56:09 2018, MaxMem=  1342177280 cpu:               5.8 elap:               0.4
 (Enter /gpfs/apps/hpc/Apps/Restricted/Gaussian/Rev_A.03/g16/l103.exe)

 GradGradGradGradGradGradGradGradGradGradGradGradGradGradGradGradGradGrad
 Berny optimization.
 Initialization pass.
                           ----------------------------
                           !    Initial Parameters    !
                           ! (Angstroms and Degrees)  !
 --------------------------                            --------------------------
 ! Name  Definition              Value          Derivative Info.                !
 --------------------------------------------------------------------------------
 ! R1    R(1,2)                  1.4137         estimate D2E/DX2                !
 ! R2    R(1,6)                  1.4033         estimate D2E/DX2                !
 ! R3    R(1,43)                 1.3723         estimate D2E/DX2                !
 ! R4    R(2,3)                  1.4005         estimate D2E/DX2                !
 ! R5    R(2,21)                 1.3861         estimate D2E/DX2                !
 ! R6    R(3,4)                  1.3939         estimate D2E/DX2                !
 ! R7    R(3,8)                  1.0832         estimate D2E/DX2                !
 ! R8    R(4,5)                  1.4047         estimate D2E/DX2                !
 ! R9    R(4,9)                  1.0835         estimate D2E/DX2                !
 ! R10   R(5,6)                  1.4011         estimate D2E/DX2                !
 ! R11   R(5,10)                 1.0847         estimate D2E/DX2                !
 ! R12   R(6,45)                 1.4585         estimate D2E/DX2                !
 ! R13   R(7,16)                 1.4532         estimate D2E/DX2                !
 ! R14   R(7,21)                 1.3321         estimate D2E/DX2                !
 ! R15   R(7,43)                 1.3753         estimate D2E/DX2                !
 ! R16   R(11,12)                1.4134         estimate D2E/DX2                !
 ! R17   R(11,16)                1.4032         estimate D2E/DX2                !
 ! R18   R(11,40)                1.3746         estimate D2E/DX2                !
 ! R19   R(12,13)                1.3983         estimate D2E/DX2                !
 ! R20   R(12,41)                1.386          estimate D2E/DX2                !
 ! R21   R(13,14)                1.395          estimate D2E/DX2                !
 ! R22   R(13,18)                1.083          estimate D2E/DX2                !
 ! R23   R(14,15)                1.4033         estimate D2E/DX2                !
 ! R24   R(14,19)                1.0835         estimate D2E/DX2                !
 ! R25   R(15,16)                1.402          estimate D2E/DX2                !
 ! R26   R(15,20)                1.0837         estimate D2E/DX2                !
 ! R27   R(17,23)                1.4528         estimate D2E/DX2                !
 ! R28   R(17,40)                1.3718         estimate D2E/DX2                !
 ! R29   R(17,41)                1.3352         estimate D2E/DX2                !
 ! R30   R(22,23)                1.4163         estimate D2E/DX2                !
 ! R31   R(22,27)                1.4068         estimate D2E/DX2                !
 ! R32   R(22,38)                1.3517         estimate D2E/DX2                !
 ! R33   R(23,24)                1.4052         estimate D2E/DX2                !
 ! R34   R(24,25)                1.3906         estimate D2E/DX2                !
 ! R35   R(24,28)                1.085          estimate D2E/DX2                !
 ! R36   R(25,26)                1.4039         estimate D2E/DX2                !
 ! R37   R(25,30)                1.5089         estimate D2E/DX2                !
 ! R38   R(26,27)                1.3932         estimate D2E/DX2                !
 ! R39   R(26,29)                1.0861         estimate D2E/DX2                !
 ! R40   R(27,34)                1.5035         estimate D2E/DX2                !
 ! R41   R(30,31)                1.0938         estimate D2E/DX2                !
 ! R42   R(30,32)                1.0947         estimate D2E/DX2                !
 ! R43   R(30,33)                1.0917         estimate D2E/DX2                !
 ! R44   R(34,35)                1.0936         estimate D2E/DX2                !
 ! R45   R(34,36)                1.095          estimate D2E/DX2                !
 ! R46   R(34,37)                1.0909         estimate D2E/DX2                !
 ! R47   R(38,39)                0.9981         estimate D2E/DX2                !
 ! R48   R(40,42)                1.0139         estimate D2E/DX2                !
 ! R49   R(43,44)                1.013          estimate D2E/DX2                !
 ! R50   R(45,46)                1.0958         estimate D2E/DX2                !
 ! R51   R(45,47)                1.2827         estimate D2E/DX2                !
 ! R52   R(47,48)                1.4735         estimate D2E/DX2                !
 ! R53   R(48,49)                1.5379         estimate D2E/DX2                !
 ! R54   R(48,50)                1.5381         estimate D2E/DX2                !
 ! R55   R(48,51)                1.0961         estimate D2E/DX2                !
 ! R56   R(49,52)                1.5322         estimate D2E/DX2                !
 ! R57   R(49,53)                1.0968         estimate D2E/DX2                !
 ! R58   R(49,54)                1.0944         estimate D2E/DX2                !
 ! R59   R(50,55)                1.5327         estimate D2E/DX2                !
 ! R60   R(50,56)                1.0961         estimate D2E/DX2                !
 ! R61   R(50,57)                1.0944         estimate D2E/DX2                !
 ! R62   R(52,58)                1.5325         estimate D2E/DX2                !
 ! R63   R(52,59)                1.0948         estimate D2E/DX2                !
 ! R64   R(52,60)                1.0972         estimate D2E/DX2                !
 ! R65   R(55,58)                1.5327         estimate D2E/DX2                !
 ! R66   R(55,61)                1.0947         estimate D2E/DX2                !
 ! R67   R(55,62)                1.0975         estimate D2E/DX2                !
 ! R68   R(58,63)                1.0945         estimate D2E/DX2                !
 ! R69   R(58,64)                1.0974         estimate D2E/DX2                !
 ! A1    A(2,1,6)              123.046          estimate D2E/DX2                !
 ! A2    A(2,1,43)             105.5202         estimate D2E/DX2                !
 ! A3    A(6,1,43)             131.4286         estimate D2E/DX2                !
 ! A4    A(1,2,3)              119.7307         estimate D2E/DX2                !
 ! A5    A(1,2,21)             109.5171         estimate D2E/DX2                !
 ! A6    A(3,2,21)             130.7511         estimate D2E/DX2                !
 ! A7    A(2,3,4)              117.9509         estimate D2E/DX2                !
 ! A8    A(2,3,8)              120.7322         estimate D2E/DX2                !
 ! A9    A(4,3,8)              121.3163         estimate D2E/DX2                !
 ! A10   A(3,4,5)              121.5767         estimate D2E/DX2                !
 ! A11   A(3,4,9)              119.4467         estimate D2E/DX2                !
 ! A12   A(5,4,9)              118.9766         estimate D2E/DX2                !
 ! A13   A(4,5,6)              121.8439         estimate D2E/DX2                !
 ! A14   A(4,5,10)             119.4579         estimate D2E/DX2                !
 ! A15   A(6,5,10)             118.6982         estimate D2E/DX2                !
 ! A16   A(1,6,5)              115.8492         estimate D2E/DX2                !
 ! A17   A(1,6,45)             122.1634         estimate D2E/DX2                !
 ! A18   A(5,6,45)             121.9869         estimate D2E/DX2                !
 ! A19   A(16,7,21)            123.8025         estimate D2E/DX2                !
 ! A20   A(16,7,43)            124.2399         estimate D2E/DX2                !
 ! A21   A(21,7,43)            111.9563         estimate D2E/DX2                !
 ! A22   A(12,11,16)           122.9635         estimate D2E/DX2                !
 ! A23   A(12,11,40)           105.7251         estimate D2E/DX2                !
 ! A24   A(16,11,40)           131.3089         estimate D2E/DX2                !
 ! A25   A(11,12,13)           119.8862         estimate D2E/DX2                !
 ! A26   A(11,12,41)           108.9293         estimate D2E/DX2                !
 ! A27   A(13,12,41)           131.1844         estimate D2E/DX2                !
 ! A28   A(12,13,14)           117.7083         estimate D2E/DX2                !
 ! A29   A(12,13,18)           120.8667         estimate D2E/DX2                !
 ! A30   A(14,13,18)           121.4249         estimate D2E/DX2                !
 ! A31   A(13,14,15)           121.9332         estimate D2E/DX2                !
 ! A32   A(13,14,19)           119.2917         estimate D2E/DX2                !
 ! A33   A(15,14,19)           118.775          estimate D2E/DX2                !
 ! A34   A(14,15,16)           121.5072         estimate D2E/DX2                !
 ! A35   A(14,15,20)           119.0024         estimate D2E/DX2                !
 ! A36   A(16,15,20)           119.4896         estimate D2E/DX2                !
 ! A37   A(7,16,11)            119.5962         estimate D2E/DX2                !
 ! A38   A(7,16,15)            124.4041         estimate D2E/DX2                !
 ! A39   A(11,16,15)           115.9959         estimate D2E/DX2                !
 ! A40   A(23,17,40)           124.8096         estimate D2E/DX2                !
 ! A41   A(23,17,41)           123.8347         estimate D2E/DX2                !
 ! A42   A(40,17,41)           111.3478         estimate D2E/DX2                !
 ! A43   A(2,21,7)             105.5231         estimate D2E/DX2                !
 ! A44   A(23,22,27)           119.8975         estimate D2E/DX2                !
 ! A45   A(23,22,38)           122.3831         estimate D2E/DX2                !
 ! A46   A(27,22,38)           117.7194         estimate D2E/DX2                !
 ! A47   A(17,23,22)           119.1848         estimate D2E/DX2                !
 ! A48   A(17,23,24)           121.4547         estimate D2E/DX2                !
 ! A49   A(22,23,24)           119.3586         estimate D2E/DX2                !
 ! A50   A(23,24,25)           121.5218         estimate D2E/DX2                !
 ! A51   A(23,24,28)           119.2821         estimate D2E/DX2                !
 ! A52   A(25,24,28)           119.1955         estimate D2E/DX2                !
 ! A53   A(24,25,26)           117.8466         estimate D2E/DX2                !
 ! A54   A(24,25,30)           120.9621         estimate D2E/DX2                !
 ! A55   A(26,25,30)           121.1906         estimate D2E/DX2                !
 ! A56   A(25,26,27)           122.6929         estimate D2E/DX2                !
 ! A57   A(25,26,29)           118.9943         estimate D2E/DX2                !
 ! A58   A(27,26,29)           118.3101         estimate D2E/DX2                !
 ! A59   A(22,27,26)           118.6773         estimate D2E/DX2                !
 ! A60   A(22,27,34)           119.4517         estimate D2E/DX2                !
 ! A61   A(26,27,34)           121.8697         estimate D2E/DX2                !
 ! A62   A(25,30,31)           111.2787         estimate D2E/DX2                !
 ! A63   A(25,30,32)           111.3063         estimate D2E/DX2                !
 ! A64   A(25,30,33)           111.0175         estimate D2E/DX2                !
 ! A65   A(31,30,32)           107.0384         estimate D2E/DX2                !
 ! A66   A(31,30,33)           108.179          estimate D2E/DX2                !
 ! A67   A(32,30,33)           107.8451         estimate D2E/DX2                !
 ! A68   A(27,34,35)           111.2965         estimate D2E/DX2                !
 ! A69   A(27,34,36)           111.2069         estimate D2E/DX2                !
 ! A70   A(27,34,37)           110.6076         estimate D2E/DX2                !
 ! A71   A(35,34,36)           106.6418         estimate D2E/DX2                !
 ! A72   A(35,34,37)           108.6605         estimate D2E/DX2                !
 ! A73   A(36,34,37)           108.2821         estimate D2E/DX2                !
 ! A74   A(22,38,39)           107.5611         estimate D2E/DX2                !
 ! A75   A(11,40,17)           107.7605         estimate D2E/DX2                !
 ! A76   A(11,40,42)           122.2553         estimate D2E/DX2                !
 ! A77   A(17,40,42)           129.9787         estimate D2E/DX2                !
 ! A78   A(12,41,17)           106.2364         estimate D2E/DX2                !
 ! A79   A(1,43,7)             107.4826         estimate D2E/DX2                !
 ! A80   A(1,43,44)            122.2761         estimate D2E/DX2                !
 ! A81   A(7,43,44)            130.2195         estimate D2E/DX2                !
 ! A82   A(6,45,46)            115.4664         estimate D2E/DX2                !
 ! A83   A(6,45,47)            122.0595         estimate D2E/DX2                !
 ! A84   A(46,45,47)           122.4735         estimate D2E/DX2                !
 ! A85   A(45,47,48)           117.0301         estimate D2E/DX2                !
 ! A86   A(47,48,49)           111.6813         estimate D2E/DX2                !
 ! A87   A(47,48,50)           112.53           estimate D2E/DX2                !
 ! A88   A(47,48,51)           106.3092         estimate D2E/DX2                !
 ! A89   A(49,48,50)           110.6331         estimate D2E/DX2                !
 ! A90   A(49,48,51)           107.8161         estimate D2E/DX2                !
 ! A91   A(50,48,51)           107.5787         estimate D2E/DX2                !
 ! A92   A(48,49,52)           111.506          estimate D2E/DX2                !
 ! A93   A(48,49,53)           108.3579         estimate D2E/DX2                !
 ! A94   A(48,49,54)           109.4537         estimate D2E/DX2                !
 ! A95   A(52,49,53)           109.4702         estimate D2E/DX2                !
 ! A96   A(52,49,54)           110.8265         estimate D2E/DX2                !
 ! A97   A(53,49,54)           107.0951         estimate D2E/DX2                !
 ! A98   A(48,50,55)           111.3436         estimate D2E/DX2                !
 ! A99   A(48,50,56)           108.769          estimate D2E/DX2                !
 ! A100  A(48,50,57)           109.4123         estimate D2E/DX2                !
 ! A101  A(55,50,56)           109.3071         estimate D2E/DX2                !
 ! A102  A(55,50,57)           110.7468         estimate D2E/DX2                !
 ! A103  A(56,50,57)           107.1496         estimate D2E/DX2                !
 ! A104  A(49,52,58)           111.41           estimate D2E/DX2                !
 ! A105  A(49,52,59)           109.6997         estimate D2E/DX2                !
 ! A106  A(49,52,60)           109.2421         estimate D2E/DX2                !
 ! A107  A(58,52,59)           110.4928         estimate D2E/DX2                !
 ! A108  A(58,52,60)           109.0444         estimate D2E/DX2                !
 ! A109  A(59,52,60)           106.8331         estimate D2E/DX2                !
 ! A110  A(50,55,58)           111.4306         estimate D2E/DX2                !
 ! A111  A(50,55,61)           109.6843         estimate D2E/DX2                !
 ! A112  A(50,55,62)           109.1979         estimate D2E/DX2                !
 ! A113  A(58,55,61)           110.5476         estimate D2E/DX2                !
 ! A114  A(58,55,62)           109.0949         estimate D2E/DX2                !
 ! A115  A(61,55,62)           106.7622         estimate D2E/DX2                !
 ! A116  A(52,58,55)           111.0049         estimate D2E/DX2                !
 ! A117  A(52,58,63)           110.2662         estimate D2E/DX2                !
 ! A118  A(52,58,64)           109.0986         estimate D2E/DX2                !
 ! A119  A(55,58,63)           110.2924         estimate D2E/DX2                !
 ! A120  A(55,58,64)           109.1595         estimate D2E/DX2                !
 ! A121  A(63,58,64)           106.9173         estimate D2E/DX2                !
 ! D1    D(6,1,2,3)             -0.5848         estimate D2E/DX2                !
 ! D2    D(6,1,2,21)           179.082          estimate D2E/DX2                !
 ! D3    D(43,1,2,3)          -179.8466         estimate D2E/DX2                !
 ! D4    D(43,1,2,21)           -0.1799         estimate D2E/DX2                !
 ! D5    D(2,1,6,5)              0.2282         estimate D2E/DX2                !
 ! D6    D(2,1,6,45)          -179.5165         estimate D2E/DX2                !
 ! D7    D(43,1,6,5)           179.2796         estimate D2E/DX2                !
 ! D8    D(43,1,6,45)           -0.4651         estimate D2E/DX2                !
 ! D9    D(2,1,43,7)             0.2662         estimate D2E/DX2                !
 ! D10   D(2,1,43,44)          178.7253         estimate D2E/DX2                !
 ! D11   D(6,1,43,7)          -178.9086         estimate D2E/DX2                !
 ! D12   D(6,1,43,44)           -0.4494         estimate D2E/DX2                !
 ! D13   D(1,2,3,4)              0.5491         estimate D2E/DX2                !
 ! D14   D(1,2,3,8)           -179.7524         estimate D2E/DX2                !
 ! D15   D(21,2,3,4)          -179.0362         estimate D2E/DX2                !
 ! D16   D(21,2,3,8)             0.6622         estimate D2E/DX2                !
 ! D17   D(1,2,21,7)             0.0182         estimate D2E/DX2                !
 ! D18   D(3,2,21,7)           179.6362         estimate D2E/DX2                !
 ! D19   D(2,3,4,5)             -0.2            estimate D2E/DX2                !
 ! D20   D(2,3,4,9)            179.7822         estimate D2E/DX2                !
 ! D21   D(8,3,4,5)           -179.8967         estimate D2E/DX2                !
 ! D22   D(8,3,4,9)              0.0856         estimate D2E/DX2                !
 ! D23   D(3,4,5,6)             -0.1525         estimate D2E/DX2                !
 ! D24   D(3,4,5,10)           179.8526         estimate D2E/DX2                !
 ! D25   D(9,4,5,6)            179.8652         estimate D2E/DX2                !
 ! D26   D(9,4,5,10)            -0.1297         estimate D2E/DX2                !
 ! D27   D(4,5,6,1)              0.1383         estimate D2E/DX2                !
 ! D28   D(4,5,6,45)           179.8836         estimate D2E/DX2                !
 ! D29   D(10,5,6,1)          -179.8667         estimate D2E/DX2                !
 ! D30   D(10,5,6,45)           -0.1215         estimate D2E/DX2                !
 ! D31   D(1,6,45,46)          178.9568         estimate D2E/DX2                !
 ! D32   D(1,6,45,47)           -0.7755         estimate D2E/DX2                !
 ! D33   D(5,6,45,46)           -0.7723         estimate D2E/DX2                !
 ! D34   D(5,6,45,47)          179.4953         estimate D2E/DX2                !
 ! D35   D(21,7,16,11)           3.7567         estimate D2E/DX2                !
 ! D36   D(21,7,16,15)        -176.987          estimate D2E/DX2                !
 ! D37   D(43,7,16,11)        -175.7945         estimate D2E/DX2                !
 ! D38   D(43,7,16,15)           3.4619         estimate D2E/DX2                !
 ! D39   D(16,7,21,2)         -179.4438         estimate D2E/DX2                !
 ! D40   D(43,7,21,2)            0.1561         estimate D2E/DX2                !
 ! D41   D(16,7,43,1)          179.3232         estimate D2E/DX2                !
 ! D42   D(16,7,43,44)           1.0293         estimate D2E/DX2                !
 ! D43   D(21,7,43,1)           -0.2747         estimate D2E/DX2                !
 ! D44   D(21,7,43,44)        -178.5686         estimate D2E/DX2                !
 ! D45   D(16,11,12,13)          0.8104         estimate D2E/DX2                !
 ! D46   D(16,11,12,41)       -179.229          estimate D2E/DX2                !
 ! D47   D(40,11,12,13)       -179.6968         estimate D2E/DX2                !
 ! D48   D(40,11,12,41)          0.2638         estimate D2E/DX2                !
 ! D49   D(12,11,16,7)         178.5163         estimate D2E/DX2                !
 ! D50   D(12,11,16,15)         -0.8011         estimate D2E/DX2                !
 ! D51   D(40,11,16,7)          -0.8338         estimate D2E/DX2                !
 ! D52   D(40,11,16,15)        179.8488         estimate D2E/DX2                !
 ! D53   D(12,11,40,17)         -0.3025         estimate D2E/DX2                !
 ! D54   D(12,11,40,42)       -179.5245         estimate D2E/DX2                !
 ! D55   D(16,11,40,17)        179.131          estimate D2E/DX2                !
 ! D56   D(16,11,40,42)         -0.091          estimate D2E/DX2                !
 ! D57   D(11,12,13,14)         -0.2017         estimate D2E/DX2                !
 ! D58   D(11,12,13,18)        179.8749         estimate D2E/DX2                !
 ! D59   D(41,12,13,14)        179.8479         estimate D2E/DX2                !
 ! D60   D(41,12,13,18)         -0.0756         estimate D2E/DX2                !
 ! D61   D(11,12,41,17)         -0.1197         estimate D2E/DX2                !
 ! D62   D(13,12,41,17)        179.8349         estimate D2E/DX2                !
 ! D63   D(12,13,14,15)         -0.3566         estimate D2E/DX2                !
 ! D64   D(12,13,14,19)        179.7954         estimate D2E/DX2                !
 ! D65   D(18,13,14,15)        179.5664         estimate D2E/DX2                !
 ! D66   D(18,13,14,19)         -0.2816         estimate D2E/DX2                !
 ! D67   D(13,14,15,16)          0.3488         estimate D2E/DX2                !
 ! D68   D(13,14,15,20)       -179.9805         estimate D2E/DX2                !
 ! D69   D(19,14,15,16)       -179.8025         estimate D2E/DX2                !
 ! D70   D(19,14,15,20)         -0.1318         estimate D2E/DX2                !
 ! D71   D(14,15,16,7)        -179.055          estimate D2E/DX2                !
 ! D72   D(14,15,16,11)          0.2256         estimate D2E/DX2                !
 ! D73   D(20,15,16,7)           1.2759         estimate D2E/DX2                !
 ! D74   D(20,15,16,11)       -179.4435         estimate D2E/DX2                !
 ! D75   D(40,17,23,22)        174.492          estimate D2E/DX2                !
 ! D76   D(40,17,23,24)         -4.9924         estimate D2E/DX2                !
 ! D77   D(41,17,23,22)         -4.3986         estimate D2E/DX2                !
 ! D78   D(41,17,23,24)        176.1171         estimate D2E/DX2                !
 ! D79   D(23,17,40,11)       -178.766          estimate D2E/DX2                !
 ! D80   D(23,17,40,42)          0.3755         estimate D2E/DX2                !
 ! D81   D(41,17,40,11)          0.2446         estimate D2E/DX2                !
 ! D82   D(41,17,40,42)        179.386          estimate D2E/DX2                !
 ! D83   D(23,17,41,12)        178.9473         estimate D2E/DX2                !
 ! D84   D(40,17,41,12)         -0.0747         estimate D2E/DX2                !
 ! D85   D(27,22,23,17)       -178.7021         estimate D2E/DX2                !
 ! D86   D(27,22,23,24)          0.7933         estimate D2E/DX2                !
 ! D87   D(38,22,23,17)          1.2199         estimate D2E/DX2                !
 ! D88   D(38,22,23,24)       -179.2848         estimate D2E/DX2                !
 ! D89   D(23,22,27,26)         -0.3874         estimate D2E/DX2                !
 ! D90   D(23,22,27,34)       -179.9863         estimate D2E/DX2                !
 ! D91   D(38,22,27,26)        179.6871         estimate D2E/DX2                !
 ! D92   D(38,22,27,34)          0.0882         estimate D2E/DX2                !
 ! D93   D(23,22,38,39)          0.9235         estimate D2E/DX2                !
 ! D94   D(27,22,38,39)       -179.1529         estimate D2E/DX2                !
 ! D95   D(17,23,24,25)        178.9256         estimate D2E/DX2                !
 ! D96   D(17,23,24,28)         -1.3575         estimate D2E/DX2                !
 ! D97   D(22,23,24,25)         -0.5579         estimate D2E/DX2                !
 ! D98   D(22,23,24,28)        179.159          estimate D2E/DX2                !
 ! D99   D(23,24,25,26)         -0.0819         estimate D2E/DX2                !
 ! D100  D(23,24,25,30)       -179.7814         estimate D2E/DX2                !
 ! D101  D(28,24,25,26)       -179.7991         estimate D2E/DX2                !
 ! D102  D(28,24,25,30)          0.5014         estimate D2E/DX2                !
 ! D103  D(24,25,26,27)          0.5091         estimate D2E/DX2                !
 ! D104  D(24,25,26,29)        179.9074         estimate D2E/DX2                !
 ! D105  D(30,25,26,27)       -179.7921         estimate D2E/DX2                !
 ! D106  D(30,25,26,29)         -0.3938         estimate D2E/DX2                !
 ! D107  D(24,25,30,31)        -51.8415         estimate D2E/DX2                !
 ! D108  D(24,25,30,32)         67.4604         estimate D2E/DX2                !
 ! D109  D(24,25,30,33)       -172.3929         estimate D2E/DX2                !
 ! D110  D(26,25,30,31)        128.4691         estimate D2E/DX2                !
 ! D111  D(26,25,30,32)       -112.229          estimate D2E/DX2                !
 ! D112  D(26,25,30,33)          7.9178         estimate D2E/DX2                !
 ! D113  D(25,26,27,22)         -0.2734         estimate D2E/DX2                !
 ! D114  D(25,26,27,34)        179.3153         estimate D2E/DX2                !
 ! D115  D(29,26,27,22)       -179.6756         estimate D2E/DX2                !
 ! D116  D(29,26,27,34)         -0.0869         estimate D2E/DX2                !
 ! D117  D(22,27,34,35)        -54.5677         estimate D2E/DX2                !
 ! D118  D(22,27,34,36)         64.1803         estimate D2E/DX2                !
 ! D119  D(22,27,34,37)       -175.4626         estimate D2E/DX2                !
 ! D120  D(26,27,34,35)        125.8467         estimate D2E/DX2                !
 ! D121  D(26,27,34,36)       -115.4054         estimate D2E/DX2                !
 ! D122  D(26,27,34,37)          4.9518         estimate D2E/DX2                !
 ! D123  D(6,45,47,48)         179.1231         estimate D2E/DX2                !
 ! D124  D(46,45,47,48)         -0.5905         estimate D2E/DX2                !
 ! D125  D(45,47,48,49)        -63.6192         estimate D2E/DX2                !
 ! D126  D(45,47,48,50)         61.5131         estimate D2E/DX2                !
 ! D127  D(45,47,48,51)        179.033          estimate D2E/DX2                !
 ! D128  D(47,48,49,52)       -178.534          estimate D2E/DX2                !
 ! D129  D(47,48,49,53)         60.9205         estimate D2E/DX2                !
 ! D130  D(47,48,49,54)        -55.5465         estimate D2E/DX2                !
 ! D131  D(50,48,49,52)         55.2877         estimate D2E/DX2                !
 ! D132  D(50,48,49,53)        -65.2579         estimate D2E/DX2                !
 ! D133  D(50,48,49,54)        178.2752         estimate D2E/DX2                !
 ! D134  D(51,48,49,52)        -62.0982         estimate D2E/DX2                !
 ! D135  D(51,48,49,53)        177.3562         estimate D2E/DX2                !
 ! D136  D(51,48,49,54)         60.8893         estimate D2E/DX2                !
 ! D137  D(47,48,50,55)        178.95           estimate D2E/DX2                !
 ! D138  D(47,48,50,56)        -60.539          estimate D2E/DX2                !
 ! D139  D(47,48,50,57)         56.2016         estimate D2E/DX2                !
 ! D140  D(49,48,50,55)        -55.3472         estimate D2E/DX2                !
 ! D141  D(49,48,50,56)         65.1638         estimate D2E/DX2                !
 ! D142  D(49,48,50,57)       -178.0956         estimate D2E/DX2                !
 ! D143  D(51,48,50,55)         62.1845         estimate D2E/DX2                !
 ! D144  D(51,48,50,56)       -177.3045         estimate D2E/DX2                !
 ! D145  D(51,48,50,57)        -60.5639         estimate D2E/DX2                !
 ! D146  D(48,49,52,58)        -55.5502         estimate D2E/DX2                !
 ! D147  D(48,49,52,59)       -178.2206         estimate D2E/DX2                !
 ! D148  D(48,49,52,60)         64.9866         estimate D2E/DX2                !
 ! D149  D(53,49,52,58)         64.341          estimate D2E/DX2                !
 ! D150  D(53,49,52,59)        -58.3294         estimate D2E/DX2                !
 ! D151  D(53,49,52,60)       -175.1223         estimate D2E/DX2                !
 ! D152  D(54,49,52,58)       -177.7502         estimate D2E/DX2                !
 ! D153  D(54,49,52,59)         59.5794         estimate D2E/DX2                !
 ! D154  D(54,49,52,60)        -57.2135         estimate D2E/DX2                !
 ! D155  D(48,50,55,58)         55.7745         estimate D2E/DX2                !
 ! D156  D(48,50,55,61)        178.5176         estimate D2E/DX2                !
 ! D157  D(48,50,55,62)        -64.8093         estimate D2E/DX2                !
 ! D158  D(56,50,55,58)        -64.4194         estimate D2E/DX2                !
 ! D159  D(56,50,55,61)         58.3237         estimate D2E/DX2                !
 ! D160  D(56,50,55,62)        174.9968         estimate D2E/DX2                !
 ! D161  D(57,50,55,58)        177.7531         estimate D2E/DX2                !
 ! D162  D(57,50,55,61)        -59.5038         estimate D2E/DX2                !
 ! D163  D(57,50,55,62)         57.1693         estimate D2E/DX2                !
 ! D164  D(49,52,58,55)         55.2472         estimate D2E/DX2                !
 ! D165  D(49,52,58,63)        177.7803         estimate D2E/DX2                !
 ! D166  D(49,52,58,64)        -65.0832         estimate D2E/DX2                !
 ! D167  D(59,52,58,55)        177.4611         estimate D2E/DX2                !
 ! D168  D(59,52,58,63)        -60.0058         estimate D2E/DX2                !
 ! D169  D(59,52,58,64)         57.1307         estimate D2E/DX2                !
 ! D170  D(60,52,58,55)        -65.4056         estimate D2E/DX2                !
 ! D171  D(60,52,58,63)         57.1275         estimate D2E/DX2                !
 ! D172  D(60,52,58,64)        174.264          estimate D2E/DX2                !
 ! D173  D(50,55,58,52)        -55.4107         estimate D2E/DX2                !
 ! D174  D(50,55,58,63)       -177.9286         estimate D2E/DX2                !
 ! D175  D(50,55,58,64)         64.8835         estimate D2E/DX2                !
 ! D176  D(61,55,58,52)       -177.6575         estimate D2E/DX2                !
 ! D177  D(61,55,58,63)         59.8246         estimate D2E/DX2                !
 ! D178  D(61,55,58,64)        -57.3632         estimate D2E/DX2                !
 ! D179  D(62,55,58,52)         65.2334         estimate D2E/DX2                !
 ! D180  D(62,55,58,63)        -57.2844         estimate D2E/DX2                !
 ! D181  D(62,55,58,64)       -174.4723         estimate D2E/DX2                !
 --------------------------------------------------------------------------------
 Trust Radius=3.00D-01 FncErr=1.00D-07 GrdErr=1.00D-07 EigMax=2.50D+02 EigMin=1.00D-04
 Number of steps in this run=    381 maximum allowed number of steps=    384.
 GradGradGradGradGradGradGradGradGradGradGradGradGradGradGradGradGradGrad

 Leave Link  103 at Fri Dec 14 13:56:09 2018, MaxMem=  1342177280 cpu:               0.6 elap:               0.1
 (Enter /gpfs/apps/hpc/Apps/Restricted/Gaussian/Rev_A.03/g16/l202.exe)
 Symmetry turned off by external request.
 Stoichiometry    C29H29N5O
 Framework group  C1[X(C29H29N5O)]
 Deg. of freedom   186
 Full point group                 C1      NOp   1
                          Input orientation:                          
 ---------------------------------------------------------------------
 Center     Atomic      Atomic             Coordinates (Angstroms)
 Number     Number       Type             X           Y           Z
 ---------------------------------------------------------------------
      1          6           0        1.590666    1.138707    0.162928
      2          6           0        0.373043    1.856852    0.147552
      3          6           0        0.391952    3.254227    0.055313
      4          6           0        1.631138    3.886602   -0.030373
      5          6           0        2.831480    3.156985   -0.021237
      6          6           0        2.846340    1.759436    0.077371
      7          6           0       -0.137795   -0.241657    0.286994
      8          1           0       -0.531151    3.820922    0.046229
      9          1           0        1.673901    4.966625   -0.106266
     10          1           0        3.776802    3.684248   -0.092119
     11          6           0       -2.303392   -1.426802    0.304732
     12          6           0       -3.115067   -2.583172    0.345717
     13          6           0       -2.524882   -3.844579    0.470779
     14          6           0       -1.133291   -3.904945    0.546641
     15          6           0       -0.336307   -2.751198    0.493326
     16          6           0       -0.902478   -1.474733    0.367831
     17          6           0       -4.445752   -0.871484    0.151286
     18          1           0       -3.131703   -4.740933    0.505804
     19          1           0       -0.649223   -4.869020    0.647304
     20          1           0        0.740769   -2.853236    0.556223
     21          7           0       -0.688965    0.969508    0.225907
     22          6           0       -6.899459   -0.724773   -0.133511
     23          6           0       -5.650259   -0.072205    0.006475
     24          6           0       -5.601070    1.332070   -0.008362
     25          6           0       -6.750450    2.098156   -0.168960
     26          6           0       -7.972471    1.423602   -0.319002
     27          6           0       -8.072020    0.034075   -0.302159
     28          1           0       -4.645204    1.830895    0.112751
     29          1           0       -8.882137    2.003705   -0.444193
     30          6           0       -6.682397    3.605367   -0.187885
     31          1           0       -6.141817    3.989278    0.682096
     32          1           0       -6.157916    3.968719   -1.077424
     33          1           0       -7.682745    4.042508   -0.187436
     34          6           0       -9.392835   -0.669028   -0.449497
     35          1           0       -9.365516   -1.399221   -1.263202
     36          1           0       -9.650709   -1.222131    0.459652
     37          1           0      -10.189404    0.048540   -0.651044
     38          8           0       -7.019214   -2.071011   -0.113630
     39          1           0       -6.107519   -2.452421    0.026247
     40          7           0       -3.170652   -0.366896    0.186456
     41          7           0       -4.444236   -2.203276    0.246256
     42          1           0       -2.847845    0.592478    0.127749
     43          7           0        1.235890   -0.183667    0.255459
     44          1           0        1.922418   -0.928399    0.266557
     45          6           0        4.090660    0.998606    0.084638
     46          1           0        5.006887    1.592960   -0.005315
     47          7           0        4.106268   -0.280107    0.184392
     48          6           0        5.424676   -0.937608    0.160254
     49          6           0        6.140885   -0.725357   -1.183987
     50          6           0        6.323637   -0.498676    1.328597
     51          1           0        5.235319   -2.011242    0.273501
     52          6           0        7.495435   -1.440759   -1.217865
     53          1           0        6.292352    0.351242   -1.328472
     54          1           0        5.497344   -1.071879   -1.998569
     55          6           0        7.676817   -1.217522    1.291879
     56          1           0        6.486073    0.583240    1.261445
     57          1           0        5.808828   -0.689550    2.275262
     58          6           0        8.387072   -1.006007   -0.049727
     59          1           0        7.992645   -1.244482   -2.173245
     60          1           0        7.333551   -2.524421   -1.160669
     61          1           0        8.303442   -0.866336    2.117926
     62          1           0        7.518966   -2.292188    1.449048
     63          1           0        9.332846   -1.556423   -0.069434
     64          1           0        8.633979    0.057283   -0.162847
 ---------------------------------------------------------------------
 Rotational constants (GHZ):           0.2610927           0.0418916           0.0367285
 Leave Link  202 at Fri Dec 14 13:56:09 2018, MaxMem=  1342177280 cpu:               0.7 elap:               0.1
 (Enter /gpfs/apps/hpc/Apps/Restricted/Gaussian/Rev_A.03/g16/l716.exe)
 Electric field and nuclear coordinate derivatives read from checkpoint file.
 Dipole        = 3.10604289D+00 1.07591387D+00-7.73416807D-02
 Polarizability= 7.18459646D+02-2.29778834D+01 6.50387727D+02
                 1.99648528D+01-2.82342750D+01 2.17533580D+02
 Full mass-weighted force constant matrix:
 Low frequencies ---  -11.7279   -0.0026    0.0012    0.0023    2.3497    3.8611
 Low frequencies ---   23.0790   31.3022   36.3362
 Diagonal vibrational polarizability:
       76.3349796      26.9403113      89.9904212
 Harmonic frequencies (cm**-1), IR intensities (KM/Mole), Raman scattering
 activities (A**4/AMU), depolarization ratios for plane and unpolarized
 incident light, reduced masses (AMU), force constants (mDyne/A),
 and normal coordinates:
                      1                      2                      3
                      A                      A                      A
 Frequencies --     18.2034                30.6078                35.6200
 Red. masses --      5.5809                 4.5437                 5.2971
 Frc consts  --      0.0011                 0.0025                 0.0040
 IR Inten    --      0.1860                 0.2684                 0.0820
  Atom  AN      X      Y      Z        X      Y      Z        X      Y      Z
     1   6    -0.00  -0.01  -0.10     0.01   0.04  -0.01    -0.03  -0.07   0.00
     2   6    -0.00  -0.01  -0.13     0.02   0.04  -0.01    -0.04  -0.08   0.02
     3   6    -0.00  -0.01  -0.14     0.03   0.04  -0.07    -0.06  -0.09  -0.03
     4   6    -0.00  -0.01  -0.11     0.03   0.02  -0.13    -0.08  -0.07  -0.09
     5   6    -0.00  -0.01  -0.07     0.03   0.01  -0.12    -0.07  -0.06  -0.10
     6   6    -0.00  -0.01  -0.06     0.02   0.02  -0.06    -0.04  -0.05  -0.06
     7   6    -0.00  -0.01  -0.12     0.01   0.05   0.05    -0.02  -0.08   0.07
     8   1    -0.01  -0.02  -0.16     0.03   0.05  -0.08    -0.07  -0.10  -0.02
     9   1    -0.01  -0.01  -0.12     0.04   0.02  -0.19    -0.09  -0.07  -0.13
    10   1    -0.00  -0.00  -0.05     0.03   0.00  -0.17    -0.08  -0.05  -0.15
    11   6     0.00  -0.01  -0.08     0.01   0.04   0.04    -0.02  -0.06   0.06
    12   6    -0.00  -0.01  -0.07     0.02   0.03   0.01    -0.04  -0.05   0.02
    13   6    -0.00  -0.01  -0.10     0.03   0.03  -0.00    -0.06  -0.06   0.02
    14   6     0.00  -0.02  -0.14     0.03   0.04   0.03    -0.06  -0.08   0.04
    15   6     0.00  -0.02  -0.14     0.02   0.05   0.05    -0.04  -0.09   0.07
    16   6     0.00  -0.01  -0.12     0.01   0.05   0.06    -0.02  -0.08   0.07
    17   6    -0.00  -0.00  -0.01     0.01   0.02   0.01    -0.01  -0.02   0.02
    18   1    -0.00  -0.01  -0.10     0.04   0.03  -0.03    -0.07  -0.05  -0.01
    19   1     0.00  -0.02  -0.16     0.04   0.05   0.02    -0.08  -0.09   0.03
    20   1     0.00  -0.02  -0.16     0.02   0.06   0.06    -0.04  -0.10   0.08
    21   7    -0.00  -0.02  -0.14     0.01   0.05   0.03    -0.03  -0.09   0.06
    22   6    -0.01   0.01   0.07     0.02  -0.03  -0.07     0.01   0.05  -0.05
    23   6    -0.00   0.00   0.03    -0.01  -0.00   0.01     0.02   0.02   0.01
    24   6     0.00   0.00   0.05    -0.04   0.00   0.10     0.05   0.02   0.06
    25   6     0.00   0.01   0.10    -0.06  -0.02   0.13     0.07   0.05   0.05
    26   6    -0.01   0.02   0.13    -0.04  -0.04   0.05     0.06   0.08   0.00
    27   6    -0.01   0.02   0.12     0.00  -0.05  -0.07     0.03   0.09  -0.06
    28   1     0.01  -0.00   0.01    -0.06   0.02   0.16     0.06  -0.01   0.10
    29   1    -0.01   0.02   0.17    -0.05  -0.06   0.07     0.08   0.11   0.00
    30   6     0.00   0.01   0.12    -0.10  -0.02   0.25     0.11   0.05   0.11
    31   1    -0.01  -0.00   0.13    -0.17  -0.07   0.31     0.10   0.01   0.13
    32   1     0.02   0.02   0.13    -0.06   0.07   0.31     0.14   0.07   0.13
    33   1     0.01   0.01   0.11    -0.12  -0.05   0.22     0.12   0.07   0.11
    34   6    -0.02   0.03   0.16     0.03  -0.08  -0.17     0.02   0.12  -0.12
    35   1    -0.06   0.03   0.15     0.11  -0.05  -0.19     0.03   0.14  -0.14
    36   1     0.00   0.02   0.17    -0.02  -0.11  -0.21    -0.03   0.11  -0.14
    37   1    -0.03   0.03   0.20     0.02  -0.09  -0.21     0.04   0.15  -0.13
    38   8    -0.02   0.01   0.06     0.05  -0.03  -0.16    -0.03   0.05  -0.10
    39   1    -0.01   0.00   0.03     0.05  -0.01  -0.12    -0.04   0.03  -0.07
    40   7     0.00  -0.01  -0.04     0.00   0.03   0.04     0.00  -0.04   0.06
    41   7    -0.00  -0.01  -0.03     0.02   0.01  -0.02    -0.04  -0.02   0.00
    42   1     0.00  -0.01  -0.04    -0.01   0.04   0.06     0.03  -0.05   0.07
    43   7    -0.00  -0.01  -0.10     0.01   0.04   0.04    -0.02  -0.07   0.04
    44   1     0.00  -0.01  -0.08     0.01   0.04   0.04    -0.02  -0.07   0.04
    45   6     0.00  -0.00  -0.01     0.01   0.00  -0.05    -0.02  -0.02  -0.07
    46   1     0.00   0.00   0.04     0.02  -0.02  -0.07    -0.05   0.01  -0.10
    47   7     0.00  -0.00  -0.01    -0.01   0.00  -0.01     0.02  -0.02  -0.04
    48   6     0.01   0.01   0.06    -0.03  -0.02   0.00     0.05   0.04  -0.04
    49   6     0.07   0.00   0.09    -0.01  -0.06   0.01     0.07   0.08  -0.02
    50   6    -0.05   0.02   0.09    -0.03  -0.03   0.00     0.01   0.06  -0.02
    51   1     0.01   0.01   0.06    -0.05  -0.02   0.02     0.09   0.03  -0.05
    52   6     0.07   0.01   0.16    -0.03  -0.08   0.03     0.10   0.13   0.00
    53   1     0.07   0.00   0.09     0.01  -0.06  -0.01     0.03   0.09  -0.01
    54   1     0.11  -0.01   0.06    -0.01  -0.06   0.01     0.10   0.06  -0.04
    55   6    -0.04   0.03   0.16    -0.04  -0.05   0.03     0.04   0.12   0.01
    56   1    -0.05   0.02   0.09    -0.01  -0.03  -0.01    -0.03   0.07  -0.01
    57   1    -0.09   0.02   0.07    -0.04  -0.00   0.00    -0.01   0.04  -0.03
    58   6     0.02   0.02   0.19    -0.03  -0.08   0.03     0.06   0.15   0.03
    59   1     0.11   0.01   0.18    -0.01  -0.11   0.03     0.11   0.16   0.02
    60   1     0.08   0.01   0.16    -0.05  -0.08   0.04     0.13   0.12  -0.01
    61   1    -0.08   0.04   0.19    -0.04  -0.05   0.03     0.00   0.13   0.03
    62   1    -0.04   0.03   0.16    -0.06  -0.05   0.04     0.07   0.11  -0.00
    63   1     0.02   0.03   0.24    -0.04  -0.10   0.04     0.08   0.19   0.04
    64   1     0.02   0.02   0.20    -0.01  -0.09   0.02     0.02   0.16   0.04
                      4                      5                      6
                      A                      A                      A
 Frequencies --     45.2381                52.8398                63.2560
 Red. masses --      4.6232                 5.4103                 5.4812
 Frc consts  --      0.0056                 0.0089                 0.0129
 IR Inten    --      0.3813                 1.1242                 0.0504
  Atom  AN      X      Y      Z        X      Y      Z        X      Y      Z
     1   6    -0.01   0.00   0.07    -0.04   0.06  -0.01     0.01   0.01   0.09
     2   6    -0.02  -0.01  -0.07    -0.06   0.02   0.02     0.01   0.02   0.12
     3   6    -0.03  -0.02  -0.17    -0.10   0.02   0.02     0.01   0.01   0.04
     4   6    -0.03  -0.01  -0.13    -0.11   0.05  -0.00     0.01  -0.00  -0.09
     5   6    -0.02   0.00   0.01    -0.09   0.08  -0.03     0.01  -0.01  -0.14
     6   6    -0.01   0.01   0.11    -0.06   0.08  -0.03     0.00  -0.01  -0.04
     7   6    -0.00  -0.01   0.01     0.01   0.00   0.02     0.00   0.02   0.18
     8   1    -0.03  -0.03  -0.28    -0.11   0.00   0.04     0.02   0.02   0.07
     9   1    -0.03  -0.02  -0.21    -0.14   0.05   0.00     0.01  -0.01  -0.17
    10   1    -0.02   0.01   0.04    -0.11   0.11  -0.05     0.00  -0.02  -0.26
    11   6     0.01  -0.02  -0.04     0.05  -0.05   0.02     0.00   0.01  -0.02
    12   6     0.00  -0.02  -0.05     0.06  -0.05  -0.00     0.01   0.00  -0.13
    13   6     0.00  -0.02  -0.03     0.08  -0.05  -0.03     0.01   0.00  -0.14
    14   6     0.00  -0.01   0.01     0.08  -0.03  -0.04     0.00   0.01  -0.01
    15   6     0.00  -0.01   0.03     0.07  -0.02  -0.02    -0.00   0.02   0.12
    16   6     0.00  -0.02   0.00     0.05  -0.02   0.01    -0.00   0.02   0.11
    17   6     0.01  -0.02  -0.06     0.06  -0.05   0.02     0.01  -0.00  -0.14
    18   1     0.01  -0.02  -0.04     0.10  -0.06  -0.04     0.01  -0.01  -0.24
    19   1     0.00  -0.01   0.03     0.09  -0.02  -0.06     0.00   0.01   0.00
    20   1     0.00  -0.01   0.07     0.07  -0.00  -0.03    -0.01   0.03   0.23
    21   7    -0.01  -0.02  -0.09    -0.03  -0.01   0.03     0.01   0.02   0.18
    22   6     0.01   0.01  -0.02     0.06   0.00   0.01    -0.01  -0.01  -0.02
    23   6     0.02  -0.01  -0.04     0.08  -0.03   0.02     0.00  -0.01  -0.10
    24   6     0.03  -0.01  -0.01     0.11  -0.03   0.02    -0.00  -0.01  -0.10
    25   6     0.03   0.01   0.03     0.14   0.00  -0.00    -0.01  -0.01  -0.04
    26   6     0.02   0.02   0.05     0.12   0.03  -0.01    -0.02  -0.01   0.06
    27   6     0.01   0.02   0.02     0.08   0.03  -0.00    -0.02  -0.01   0.09
    28   1     0.04  -0.02  -0.03     0.12  -0.05   0.03     0.00  -0.00  -0.15
    29   1     0.02   0.03   0.08     0.14   0.05  -0.02    -0.03  -0.01   0.13
    30   6     0.04   0.01   0.07     0.19  -0.00  -0.02    -0.01  -0.01  -0.05
    31   1     0.03  -0.02   0.09     0.22  -0.01  -0.04     0.00   0.00  -0.07
    32   1     0.06   0.03   0.09     0.18  -0.03  -0.04    -0.03  -0.02  -0.07
    33   1     0.05   0.02   0.06     0.20   0.03  -0.01    -0.01  -0.01  -0.04
    34   6    -0.00   0.04   0.05     0.07   0.07  -0.00    -0.04  -0.00   0.24
    35   1    -0.04   0.05   0.04     0.05   0.07  -0.01    -0.15   0.00   0.23
    36   1     0.02   0.03   0.05     0.05   0.07  -0.01     0.06  -0.01   0.26
    37   1     0.00   0.05   0.08     0.09   0.09  -0.00    -0.06   0.01   0.34
    38   8    -0.00   0.01  -0.04     0.04   0.01   0.01    -0.01  -0.01  -0.02
    39   1    -0.01  -0.00  -0.06     0.03  -0.02   0.00     0.01  -0.01  -0.10
    40   7     0.01  -0.02  -0.05     0.05  -0.05   0.04     0.00   0.01  -0.04
    41   7     0.01  -0.02  -0.07     0.06  -0.05   0.00     0.02  -0.01  -0.21
    42   1     0.02  -0.02  -0.05     0.06  -0.05   0.05    -0.01   0.01   0.02
    43   7    -0.00   0.00   0.11     0.00   0.04  -0.01     0.00   0.01   0.15
    44   1     0.00   0.01   0.17     0.04   0.07  -0.03    -0.00   0.01   0.11
    45   6    -0.00   0.02   0.17    -0.06   0.08  -0.05     0.00  -0.01  -0.09
    46   1    -0.01   0.02   0.17    -0.05   0.06  -0.06    -0.00  -0.02  -0.18
    47   7     0.00   0.02   0.19    -0.10   0.08  -0.03     0.00  -0.01  -0.03
    48   6    -0.00   0.02   0.13    -0.13   0.03  -0.01     0.00  -0.01  -0.03
    49   6    -0.12  -0.02   0.06    -0.10  -0.02  -0.01     0.03  -0.01  -0.02
    50   6     0.11   0.05   0.04    -0.13   0.00  -0.01    -0.02  -0.01  -0.01
    51   1     0.01   0.02   0.18    -0.17   0.03  -0.00     0.00  -0.01  -0.04
    52   6    -0.13  -0.02  -0.06    -0.13  -0.08   0.03     0.03  -0.01   0.02
    53   1    -0.13  -0.02   0.02    -0.06  -0.03  -0.02     0.03  -0.01  -0.02
    54   1    -0.21  -0.03   0.13    -0.10  -0.01  -0.01     0.05  -0.02  -0.03
    55   6     0.10   0.04  -0.08    -0.16  -0.05   0.03    -0.02  -0.00   0.02
    56   1     0.11   0.05  -0.00    -0.08  -0.00  -0.02    -0.03  -0.01  -0.02
    57   1     0.20   0.07   0.09    -0.15   0.04  -0.01    -0.05  -0.00  -0.03
    58   6    -0.02   0.00  -0.15    -0.13  -0.10   0.03     0.01  -0.01   0.04
    59   1    -0.22  -0.05  -0.11    -0.11  -0.11   0.03     0.05  -0.01   0.03
    60   1    -0.13  -0.02  -0.02    -0.18  -0.07   0.04     0.03  -0.01   0.02
    61   1     0.18   0.05  -0.15    -0.16  -0.07   0.03    -0.04   0.00   0.03
    62   1     0.11   0.04  -0.05    -0.21  -0.05   0.04    -0.02  -0.00   0.02
    63   1    -0.03  -0.00  -0.22    -0.16  -0.14   0.05     0.01  -0.00   0.06
    64   1    -0.03  -0.00  -0.20    -0.08  -0.11   0.02     0.01  -0.01   0.04
                      7                      8                      9
                      A                      A                      A
 Frequencies --     75.0509                81.0903               110.0889
 Red. masses --      3.7107                 3.7744                 3.4836
 Frc consts  --      0.0123                 0.0146                 0.0249
 IR Inten    --      1.5680                 0.3028                 0.0288
  Atom  AN      X      Y      Z        X      Y      Z        X      Y      Z
     1   6    -0.00   0.01  -0.01    -0.00  -0.01  -0.06     0.00   0.00  -0.01
     2   6    -0.00   0.00  -0.06    -0.00  -0.01   0.00     0.02   0.02  -0.00
     3   6    -0.00   0.00  -0.06    -0.01  -0.00   0.11     0.07   0.03   0.01
     4   6    -0.00   0.01   0.01    -0.01   0.01   0.15     0.09  -0.01   0.01
     5   6     0.00   0.01   0.06    -0.01   0.01   0.06     0.07  -0.04   0.00
     6   6    -0.00   0.01   0.05    -0.01   0.00  -0.05     0.02  -0.04  -0.01
     7   6     0.00   0.00  -0.04     0.00  -0.01  -0.06    -0.01   0.03  -0.01
     8   1    -0.00   0.00  -0.10    -0.01  -0.00   0.18     0.09   0.06   0.02
     9   1    -0.00   0.01   0.02    -0.02   0.02   0.24     0.12  -0.01   0.02
    10   1     0.00   0.02   0.11    -0.01   0.02   0.09     0.09  -0.07   0.01
    11   6     0.01  -0.01  -0.04     0.00  -0.01  -0.05     0.01   0.01  -0.00
    12   6     0.01  -0.01   0.03    -0.00  -0.01   0.00     0.02  -0.00  -0.00
    13   6     0.01   0.01   0.14    -0.01  -0.00   0.10     0.04   0.01  -0.00
    14   6     0.01   0.02   0.18    -0.01   0.00   0.13     0.04   0.02  -0.00
    15   6     0.01   0.01   0.11    -0.01  -0.01   0.06     0.02   0.03  -0.00
    16   6     0.01   0.00  -0.00     0.00  -0.01  -0.03     0.01   0.02  -0.00
    17   6     0.01  -0.02  -0.08     0.00  -0.01  -0.09     0.01  -0.01  -0.00
    18   1     0.01   0.01   0.20    -0.01   0.00   0.16     0.05  -0.00   0.00
    19   1     0.01   0.03   0.28    -0.02   0.01   0.22     0.05   0.03   0.00
    20   1     0.01   0.02   0.14    -0.01  -0.00   0.08     0.02   0.04  -0.01
    21   7    -0.00   0.00  -0.09     0.00  -0.01  -0.01     0.01   0.04  -0.00
    22   6     0.01  -0.00  -0.04    -0.00   0.00  -0.06     0.01  -0.01  -0.00
    23   6     0.01  -0.01  -0.08     0.01  -0.01  -0.08     0.01  -0.01  -0.00
    24   6     0.02  -0.01  -0.05     0.01  -0.01  -0.04     0.02  -0.01   0.00
    25   6     0.02  -0.00   0.01     0.01   0.00   0.03     0.02  -0.00   0.00
    26   6     0.01   0.00   0.04    -0.00   0.01   0.06     0.02   0.00   0.00
    27   6     0.00   0.00   0.02    -0.00   0.01   0.01     0.02   0.00   0.00
    28   1     0.03  -0.02  -0.07     0.02  -0.01  -0.06     0.02  -0.01   0.00
    29   1     0.01   0.01   0.10    -0.01   0.02   0.12     0.02   0.00   0.01
    30   6     0.02  -0.00   0.07     0.00   0.00   0.11     0.04  -0.01   0.01
    31   1    -0.01  -0.04   0.11    -0.04  -0.04   0.15     0.04  -0.01   0.00
    32   1     0.05   0.03   0.11     0.04   0.05   0.15     0.04  -0.01   0.00
    33   1     0.02  -0.00   0.06     0.00   0.00   0.09     0.04   0.00   0.01
    34   6    -0.01   0.02   0.07    -0.02   0.02   0.06     0.01   0.01   0.00
    35   1    -0.06   0.04   0.05    -0.07   0.05   0.04     0.00   0.01   0.00
    36   1     0.03  -0.00   0.07     0.03  -0.00   0.06     0.01   0.01   0.00
    37   1    -0.01   0.03   0.13    -0.02   0.04   0.12     0.01   0.01   0.01
    38   8     0.00  -0.01  -0.06    -0.00   0.00  -0.09     0.01  -0.01  -0.01
    39   1    -0.00  -0.01  -0.05    -0.01  -0.00  -0.07     0.01  -0.01  -0.01
    40   7     0.01  -0.02  -0.11     0.01  -0.02  -0.11     0.00   0.00  -0.00
    41   7     0.01  -0.01  -0.01    -0.00  -0.01  -0.03     0.02  -0.01  -0.00
    42   1     0.01  -0.02  -0.13     0.01  -0.02  -0.11    -0.00   0.00   0.00
    43   7     0.00   0.01  -0.00     0.00  -0.01  -0.11    -0.01   0.01  -0.01
    44   1     0.01   0.01   0.02     0.00  -0.01  -0.12    -0.01   0.01  -0.02
    45   6    -0.01   0.00   0.05     0.00   0.01  -0.06    -0.03  -0.11   0.01
    46   1     0.00   0.00   0.11    -0.00   0.02  -0.07     0.00  -0.15   0.03
    47   7    -0.02  -0.00  -0.05     0.01   0.02  -0.03    -0.08  -0.11  -0.00
    48   6    -0.02  -0.01  -0.07     0.01   0.02   0.02    -0.09  -0.12   0.02
    49   6     0.03   0.13  -0.02    -0.01  -0.12  -0.01    -0.11  -0.12  -0.00
    50   6    -0.07  -0.14   0.01     0.03   0.15  -0.04    -0.12  -0.06   0.02
    51   1    -0.04  -0.02  -0.19     0.02   0.03   0.13    -0.07  -0.12   0.04
    52   6     0.03   0.13  -0.04    -0.01  -0.14   0.05    -0.02   0.06   0.01
    53   1     0.03   0.14   0.09    -0.00  -0.13  -0.12    -0.23  -0.11  -0.05
    54   1     0.06   0.21  -0.08    -0.02  -0.20   0.03    -0.09  -0.23   0.03
    55   6    -0.07  -0.14  -0.01     0.02   0.13   0.02    -0.02   0.12  -0.01
    56   1    -0.08  -0.14   0.14     0.05   0.14  -0.16    -0.25  -0.04   0.06
    57   1    -0.11  -0.25  -0.03     0.04   0.26  -0.01    -0.09  -0.15   0.02
    58   6    -0.02   0.00   0.04     0.01  -0.02  -0.01    -0.08   0.24  -0.02
    59   1     0.07   0.24  -0.00    -0.02  -0.26   0.02    -0.07   0.08  -0.01
    60   1     0.03   0.13  -0.17    -0.03  -0.13   0.18     0.13   0.04   0.06
    61   1    -0.10  -0.22   0.05     0.04   0.21  -0.02    -0.06   0.20  -0.01
    62   1    -0.07  -0.15  -0.12     0.01   0.15   0.14     0.13   0.10  -0.04
    63   1    -0.02   0.00   0.02     0.00  -0.03   0.04     0.03   0.43  -0.03
    64   1    -0.00   0.01   0.16     0.01  -0.03  -0.12    -0.29   0.29  -0.04
                     10                     11                     12
                      A                      A                      A
 Frequencies --    124.0299               132.1558               143.2785
 Red. masses --      5.0344                 4.0582                 4.3661
 Frc consts  --      0.0456                 0.0418                 0.0528
 IR Inten    --      5.6593                 0.3708                 6.1332
  Atom  AN      X      Y      Z        X      Y      Z        X      Y      Z
     1   6    -0.01   0.04  -0.00     0.00   0.00   0.04     0.00  -0.00  -0.09
     2   6     0.01   0.08  -0.00     0.00   0.00   0.03     0.01   0.01   0.07
     3   6     0.06   0.08  -0.01     0.00   0.00   0.01     0.01   0.01   0.15
     4   6     0.08   0.04  -0.01     0.00   0.00  -0.00     0.00   0.00  -0.01
     5   6     0.06  -0.00  -0.00     0.00   0.00  -0.00    -0.00  -0.01  -0.17
     6   6     0.01  -0.00   0.00     0.00   0.00   0.02     0.00  -0.01  -0.16
     7   6    -0.06   0.09  -0.00    -0.00   0.00   0.02     0.00  -0.00  -0.03
     8   1     0.08   0.11  -0.01     0.00   0.00  -0.01     0.01   0.02   0.29
     9   1     0.12   0.04  -0.01     0.00   0.00  -0.02    -0.00   0.00   0.02
    10   1     0.07  -0.03  -0.00     0.00  -0.00  -0.02    -0.01  -0.01  -0.26
    11   6    -0.05  -0.01   0.01     0.00  -0.01  -0.10     0.00  -0.00  -0.03
    12   6    -0.00  -0.05   0.01     0.01  -0.01  -0.08     0.00  -0.00   0.02
    13   6     0.07  -0.02   0.00     0.01  -0.00  -0.03     0.00   0.00   0.06
    14   6     0.08   0.06  -0.00     0.00   0.01   0.05     0.00   0.00   0.01
    15   6     0.01   0.10  -0.00     0.00   0.01   0.06     0.00  -0.00  -0.05
    16   6    -0.05   0.08   0.00     0.00   0.00  -0.02     0.00  -0.00  -0.05
    17   6    -0.08  -0.12   0.02     0.00  -0.01  -0.08    -0.00  -0.01  -0.02
    18   1     0.13  -0.06  -0.00     0.01  -0.01  -0.02     0.00   0.00   0.10
    19   1     0.13   0.09  -0.00     0.00   0.01   0.11     0.01   0.00   0.02
    20   1     0.02   0.14  -0.00    -0.00   0.02   0.13     0.00  -0.00  -0.07
    21   7    -0.03   0.11  -0.00     0.00   0.00   0.01     0.01   0.01   0.10
    22   6    -0.11  -0.05  -0.01    -0.02   0.00   0.10    -0.01  -0.00  -0.01
    23   6    -0.08  -0.12   0.03    -0.00  -0.01  -0.01    -0.00  -0.01  -0.03
    24   6    -0.00  -0.12   0.04     0.01  -0.01  -0.05     0.00  -0.01  -0.04
    25   6     0.05  -0.05   0.02     0.01  -0.00  -0.01     0.01  -0.00  -0.01
    26   6     0.02   0.02  -0.00     0.01   0.01  -0.06     0.00   0.00  -0.01
    27   6    -0.06   0.03  -0.01     0.00   0.01  -0.03    -0.00   0.00  -0.01
    28   1     0.01  -0.17   0.07     0.02  -0.01  -0.08     0.01  -0.01  -0.04
    29   1     0.05   0.07  -0.01     0.02   0.01  -0.12     0.00   0.01  -0.00
    30   6     0.19  -0.06  -0.00    -0.00   0.00   0.13     0.00  -0.00   0.04
    31   1     0.28  -0.10  -0.04    -0.21  -0.08   0.30    -0.07  -0.04   0.11
    32   1     0.18  -0.13  -0.04     0.20   0.10   0.29     0.08   0.04   0.10
    33   1     0.24   0.04   0.04    -0.01  -0.01  -0.04     0.00  -0.01  -0.02
    34   6    -0.12   0.14  -0.04     0.02   0.01  -0.17    -0.01   0.01   0.00
    35   1    -0.19   0.17  -0.07     0.19  -0.14  -0.04    -0.02   0.01   0.01
    36   1    -0.17   0.13  -0.06    -0.19   0.17  -0.13    -0.01   0.02   0.01
    37   1    -0.06   0.22  -0.00     0.07  -0.02  -0.48    -0.00   0.02   0.00
    38   8    -0.17  -0.05  -0.04    -0.05   0.01   0.32    -0.01  -0.00   0.02
    39   1    -0.20  -0.09  -0.03    -0.04   0.00   0.22    -0.02  -0.00   0.03
    40   7    -0.10  -0.06   0.02     0.00  -0.01  -0.12    -0.00  -0.01  -0.05
    41   7    -0.03  -0.12   0.01     0.00  -0.01  -0.07    -0.00  -0.00   0.03
    42   1    -0.15  -0.04   0.02    -0.00  -0.01  -0.09    -0.01  -0.01  -0.05
    43   7    -0.05   0.06   0.00     0.00   0.01   0.05     0.00  -0.01  -0.15
    44   1    -0.08   0.04   0.01     0.00   0.01   0.04     0.00  -0.01  -0.15
    45   6     0.01  -0.01  -0.00    -0.00  -0.00  -0.01     0.00  -0.00  -0.12
    46   1     0.01  -0.00  -0.01    -0.00  -0.00  -0.02    -0.01  -0.03  -0.37
    47   7     0.03  -0.01  -0.00    -0.00  -0.00  -0.02     0.01   0.02   0.21
    48   6     0.05   0.01  -0.00    -0.00  -0.00  -0.02    -0.00   0.00   0.13
    49   6     0.06   0.00  -0.00     0.01  -0.01  -0.02    -0.06   0.08   0.11
    50   6     0.06   0.01  -0.01    -0.01   0.01  -0.02     0.06  -0.09   0.12
    51   1     0.06   0.01  -0.00     0.00  -0.00  -0.02    -0.01  -0.00   0.08
    52   6     0.05  -0.02   0.00     0.01  -0.01   0.00    -0.07   0.09  -0.03
    53   1     0.07   0.00   0.00     0.01  -0.01  -0.03    -0.06   0.09   0.17
    54   1     0.06   0.02  -0.01     0.02  -0.02  -0.02    -0.11   0.14   0.13
    55   6     0.05  -0.02   0.00    -0.01   0.01   0.00     0.06  -0.09  -0.02
    56   1     0.08   0.01  -0.03    -0.01   0.01  -0.03     0.04  -0.08   0.18
    57   1     0.06   0.04  -0.01    -0.02   0.02  -0.02     0.11  -0.16   0.13
    58   6     0.06  -0.05   0.00     0.00   0.00   0.01    -0.01   0.01  -0.04
    59   1     0.05  -0.03   0.00     0.02  -0.02   0.01    -0.12   0.17  -0.04
    60   1     0.02  -0.02  -0.00     0.01  -0.01   0.02    -0.06   0.09  -0.10
    61   1     0.05  -0.02   0.00    -0.02   0.02   0.01     0.11  -0.15  -0.03
    62   1     0.02  -0.01   0.01    -0.01   0.02   0.01     0.07  -0.10  -0.09
    63   1     0.04  -0.08   0.01     0.00   0.01   0.02    -0.01   0.01  -0.13
    64   1     0.10  -0.06  -0.00    -0.00   0.00  -0.00    -0.02   0.02   0.02
                     13                     14                     15
                      A                      A                      A
 Frequencies --    162.3177               170.2091               173.5252
 Red. masses --      2.2116                 1.2780                 2.7245
 Frc consts  --      0.0343                 0.0218                 0.0483
 IR Inten    --      0.0940                 2.2040                 2.5470
  Atom  AN      X      Y      Z        X      Y      Z        X      Y      Z
     1   6    -0.00  -0.01  -0.05    -0.01  -0.00  -0.04    -0.01  -0.01  -0.14
     2   6    -0.00  -0.01  -0.03    -0.00   0.00  -0.03    -0.01  -0.00  -0.10
     3   6    -0.00  -0.00   0.01    -0.00   0.00  -0.01    -0.00   0.00  -0.03
     4   6    -0.00   0.00   0.03     0.00   0.00   0.02     0.00   0.00   0.06
     5   6    -0.00   0.00   0.00     0.00  -0.00   0.02     0.00   0.00   0.05
     6   6    -0.00  -0.00  -0.03    -0.00  -0.00  -0.01    -0.00  -0.01  -0.05
     7   6     0.00  -0.00  -0.02    -0.01   0.00   0.00    -0.01   0.00   0.00
     8   1    -0.00  -0.00   0.04     0.00   0.00   0.00     0.00   0.01   0.01
     9   1    -0.00   0.00   0.07     0.00   0.00   0.05     0.01   0.01   0.15
    10   1    -0.00   0.00   0.03     0.00   0.00   0.05     0.01   0.01   0.15
    11   6     0.00  -0.00  -0.04    -0.00   0.00   0.05    -0.00   0.01   0.10
    12   6     0.00  -0.00  -0.09    -0.00  -0.00   0.00     0.00  -0.00  -0.04
    13   6    -0.00  -0.00  -0.04     0.00  -0.00  -0.03     0.01  -0.01  -0.10
    14   6    -0.01   0.00   0.08     0.00   0.00  -0.01    -0.00   0.00   0.02
    15   6    -0.01   0.00   0.10    -0.00   0.00   0.02    -0.00   0.01   0.12
    16   6    -0.00  -0.00   0.02    -0.00   0.00   0.04    -0.01   0.01   0.11
    17   6     0.00   0.00  -0.02    -0.00  -0.00   0.01     0.00   0.00   0.00
    18   1    -0.00  -0.00  -0.07     0.01  -0.01  -0.07     0.01  -0.02  -0.22
    19   1    -0.01   0.01   0.16     0.00  -0.00  -0.03     0.00   0.00   0.01
    20   1    -0.01   0.01   0.18    -0.00   0.00   0.01    -0.01   0.01   0.15
    21   7     0.00  -0.00  -0.02    -0.01   0.00  -0.01    -0.01   0.00  -0.02
    22   6    -0.00   0.01   0.05     0.00  -0.00  -0.02     0.00   0.00   0.01
    23   6    -0.00   0.01   0.07     0.00  -0.00  -0.02     0.01   0.00  -0.00
    24   6    -0.01   0.01   0.11     0.00  -0.00  -0.01     0.01   0.00  -0.02
    25   6    -0.01   0.00   0.09     0.01  -0.00  -0.02     0.01  -0.00  -0.04
    26   6    -0.01   0.00   0.09     0.01   0.00  -0.03     0.01  -0.00  -0.05
    27   6    -0.00   0.00   0.05     0.00   0.00  -0.01     0.01  -0.00  -0.01
    28   1    -0.01   0.01   0.08     0.00  -0.00   0.01     0.00   0.00  -0.01
    29   1    -0.01   0.00   0.06     0.01   0.00  -0.03     0.01  -0.01  -0.06
    30   6     0.01   0.00  -0.10     0.00   0.00   0.02    -0.01   0.00   0.03
    31   1     0.39   0.10  -0.38    -0.09  -0.02   0.09    -0.21  -0.03   0.16
    32   1    -0.35  -0.14  -0.38     0.10   0.03   0.09     0.18   0.05   0.16
    33   1     0.03   0.03   0.24     0.00  -0.00  -0.07    -0.02  -0.02  -0.17
    34   6     0.02  -0.02  -0.08    -0.01   0.00   0.06     0.01  -0.00  -0.00
    35   1     0.17  -0.10  -0.01     0.14  -0.41   0.44    -0.14   0.29  -0.28
    36   1    -0.12   0.06  -0.07    -0.21   0.45   0.28     0.20  -0.33  -0.15
    37   1     0.05  -0.05  -0.28     0.06  -0.07  -0.45    -0.05   0.05   0.41
    38   8     0.01   0.00  -0.00     0.01  -0.00  -0.03    -0.00   0.00   0.07
    39   1     0.02   0.00  -0.05     0.01  -0.00  -0.04     0.01  -0.00   0.01
    40   7     0.00   0.00  -0.02    -0.00   0.00   0.06    -0.00   0.01   0.14
    41   7     0.01  -0.00  -0.09     0.00  -0.00  -0.03     0.01  -0.01  -0.11
    42   1     0.00   0.01   0.04    -0.00   0.00   0.06    -0.00   0.01   0.16
    43   7     0.00  -0.01  -0.05    -0.01  -0.00  -0.04    -0.01  -0.01  -0.10
    44   1     0.00  -0.01  -0.03    -0.01  -0.00  -0.02    -0.01  -0.01  -0.06
    45   6     0.00   0.00  -0.02    -0.00  -0.00   0.01    -0.00  -0.00   0.02
    46   1    -0.00  -0.00  -0.03    -0.00   0.00   0.04     0.00   0.01   0.10
    47   7     0.00   0.00   0.02     0.00  -0.00  -0.00     0.00  -0.00  -0.01
    48   6    -0.00   0.00   0.02     0.00   0.00   0.01     0.00   0.00   0.02
    49   6    -0.01   0.01   0.02    -0.00   0.00   0.01    -0.01   0.01   0.02
    50   6     0.01  -0.01   0.02     0.01  -0.00   0.01     0.02  -0.01   0.02
    51   1    -0.00   0.00   0.01     0.00   0.00   0.01     0.00   0.00   0.02
    52   6    -0.01   0.01  -0.00    -0.00   0.00  -0.00    -0.01   0.01  -0.01
    53   1    -0.01   0.01   0.02    -0.00   0.01   0.01    -0.01   0.01   0.03
    54   1    -0.02   0.02   0.02    -0.00   0.01   0.01    -0.02   0.02   0.02
    55   6     0.01  -0.01  -0.00     0.01  -0.01  -0.00     0.01  -0.02  -0.01
    56   1     0.01  -0.01   0.03     0.01  -0.00   0.01     0.02  -0.01   0.03
    57   1     0.01  -0.02   0.02     0.01  -0.00   0.01     0.03  -0.02   0.02
    58   6    -0.00   0.00  -0.00     0.00  -0.00  -0.00     0.00  -0.01  -0.01
    59   1    -0.02   0.02  -0.00    -0.00   0.01  -0.00    -0.02   0.03  -0.01
[...]
 ! A11   A(3,4,9)               -0.0376                  1.6                    !
 --------------------------------------------------------------------------------
                           ----------------------------
                           ! Normal Mode   182        !
 --------------------------                            --------------------------
 ! Name  Definition              Value          Relative Weight (%)             !
 --------------------------------------------------------------------------------
 ! R19   R(12,13)                0.0359                  1.7                    !
 ! R21   R(13,14)                0.032                   1.5                    !
 ! R22   R(13,18)               -0.7785                 37.1                    !
 ! R23   R(14,15)               -0.035                   1.7                    !
 ! R24   R(14,19)                0.078                   3.7                    !
 ! R25   R(15,16)               -0.032                   1.5                    !
 ! R26   R(15,20)                0.749                  35.7                    !
 ! A25   A(11,12,13)             0.0189                  0.9                    !
 ! A27   A(13,12,41)            -0.0209                  1.0                    !
 ! A28   A(12,13,14)            -0.0434                  2.1                    !
 ! A29   A(12,13,18)             0.0177                  0.8                    !
 ! A30   A(14,13,18)             0.0257                  1.2                    !
 ! A32   A(13,14,19)            -0.0262                  1.2                    !
 ! A33   A(15,14,19)             0.0213                  1.0                    !
 ! A34   A(14,15,16)             0.0379                  1.8                    !
 ! A35   A(14,15,20)            -0.0171                  0.8                    !
 ! A36   A(16,15,20)            -0.0209                  1.0                    !
 ! A38   A(7,16,15)              0.0203                  1.0                    !
 ! A39   A(11,16,15)            -0.0186                  0.9                    !
 --------------------------------------------------------------------------------
                           ----------------------------
                           ! Normal Mode   183        !
 --------------------------                            --------------------------
 ! Name  Definition              Value          Relative Weight (%)             !
 --------------------------------------------------------------------------------
 ! R4    R(2,3)                 -0.0347                  1.6                    !
 ! R6    R(3,4)                 -0.0648                  3.0                    !
 ! R7    R(3,8)                  0.7787                 36.6                    !
 ! R8    R(4,5)                 -0.0398                  1.9                    !
 ! R9    R(4,9)                  0.7062                 33.2                    !
 ! R11   R(5,10)                 0.2707                 12.7                    !
 ! R22   R(13,18)               -0.0139                  0.7                    !
 ! A4    A(1,2,3)               -0.0199                  0.9                    !
 ! A6    A(3,2,21)               0.0218                  1.0                    !
 ! A7    A(2,3,4)                0.0224                  1.1                    !
 ! A8    A(2,3,8)               -0.02                    0.9                    !
 ! A12   A(5,4,9)               -0.0139                  0.7                    !
 ! A14   A(4,5,10)               0.0141                  0.7                    !
 --------------------------------------------------------------------------------
                           ----------------------------
                           ! Normal Mode   184        !
 --------------------------                            --------------------------
 ! Name  Definition              Value          Relative Weight (%)             !
 --------------------------------------------------------------------------------
 ! R19   R(12,13)                0.0266                  1.2                    !
 ! R21   R(13,14)                0.0571                  2.5                    !
 ! R22   R(13,18)               -0.602                  26.7                    !
 ! R23   R(14,15)                0.0517                  2.3                    !
 ! R24   R(14,19)               -0.7152                 31.7                    !
 ! R25   R(15,16)                0.0223                  1.0                    !
 ! R26   R(15,20)               -0.5516                 24.5                    !
 ! A25   A(11,12,13)             0.0156                  0.7                    !
 ! A27   A(13,12,41)            -0.0171                  0.8                    !
 ! A29   A(12,13,18)             0.0168                  0.7                    !
 ! A36   A(16,15,20)             0.0185                  0.8                    !
 ! A38   A(7,16,15)             -0.0158                  0.7                    !
 ! A39   A(11,16,15)             0.0147                  0.6                    !
 --------------------------------------------------------------------------------
                           ----------------------------
                           ! Normal Mode   185        !
 --------------------------                            --------------------------
 ! Name  Definition              Value          Relative Weight (%)             !
 --------------------------------------------------------------------------------
 ! R18   R(11,40)               -0.0435                  2.9                    !
 ! R28   R(17,40)               -0.0476                  3.2                    !
 ! R48   R(40,42)                1.0699                 72.3                    !
 ! R49   R(43,44)                0.0617                  4.2                    !
 ! A23   A(12,11,40)            -0.0236                  1.6                    !
 ! A24   A(16,11,40)             0.0244                  1.7                    !
 ! A40   A(23,17,40)             0.0239                  1.6                    !
 ! A42   A(40,17,41)            -0.0231                  1.6                    !
 ! A75   A(11,40,17)             0.0473                  3.2                    !
 ! A77   A(17,40,42)            -0.0474                  3.2                    !
 --------------------------------------------------------------------------------
                           ----------------------------
                           ! Normal Mode   186        !
 --------------------------                            --------------------------
 ! Name  Definition              Value          Relative Weight (%)             !
 --------------------------------------------------------------------------------
 ! R3    R(1,43)                 0.0436                  2.9                    !
 ! R15   R(7,43)                 0.0481                  3.2                    !
 ! R48   R(40,42)                0.0617                  4.2                    !
 ! R49   R(43,44)               -1.07                   72.2                    !
 ! A2    A(2,1,43)               0.0236                  1.6                    !
 ! A3    A(6,1,43)              -0.0245                  1.7                    !
 ! A20   A(16,7,43)             -0.0237                  1.6                    !
 ! A21   A(21,7,43)              0.0228                  1.5                    !
 ! A79   A(1,43,7)              -0.0471                  3.2                    !
 ! A81   A(7,43,44)              0.0459                  3.1                    !
 --------------------------------------------------------------------------------
 -------------------------------------------------------------------
 Center     Atomic                   Forces (Hartrees/Bohr)
 Number     Number              X              Y              Z
 -------------------------------------------------------------------
      1        6          -0.000000307    0.000002350   -0.000009678
      2        6          -0.000002065    0.000001098   -0.000014566
      3        6          -0.000001825    0.000000994   -0.000024947
      4        6          -0.000004374    0.000000963   -0.000029922
      5        6          -0.000002899    0.000002095   -0.000024837
      6        6          -0.000001491    0.000002100   -0.000014364
      7        6           0.000000503    0.000002220    0.000001608
      8        1          -0.000003369   -0.000000302   -0.000029098
      9        1          -0.000004178    0.000000378   -0.000038248
     10        1          -0.000002912    0.000002367   -0.000029114
     11        6           0.000001021    0.000000144    0.000010625
     12        6           0.000001478   -0.000000235    0.000019763
     13        6           0.000003524    0.000000634    0.000029478
     14        6           0.000003301    0.000003008    0.000029134
     15        6           0.000001557    0.000002722    0.000020466
     16        6           0.000002132    0.000002267    0.000010829
     17        6           0.000000075   -0.000002533    0.000007126
     18        1           0.000004249    0.000001198    0.000035985
     19        1           0.000004213    0.000004059    0.000036392
     20        1           0.000003075    0.000004726    0.000020896
     21        7          -0.000000674    0.000000519   -0.000007535
     22        6           0.000000291   -0.000006573    0.000006789
     23        6           0.000000715   -0.000005014    0.000001658
     24        6          -0.000001692   -0.000005264   -0.000009222
     25        6          -0.000001046   -0.000007013   -0.000014479
     26        6          -0.000002007   -0.000008827   -0.000009270
     27        6           0.000000335   -0.000009916    0.000001373
     28        1          -0.000001455   -0.000003251   -0.000013014
     29        1          -0.000001632   -0.000011292   -0.000013331
     30        6          -0.000003731   -0.000007201   -0.000025357
     31        1          -0.000003291   -0.000000480   -0.000029175
     32        1          -0.000003396   -0.000013512   -0.000029180
     33        1          -0.000003351   -0.000008199   -0.000029022
     34        6           0.000000209   -0.000011870    0.000006230
     35        1           0.000000831   -0.000017299    0.000012965
     36        1           0.000001111   -0.000005016    0.000011139
     37        1          -0.000000257   -0.000013724    0.000001729
     38        8           0.000001326   -0.000007503    0.000016781
     39        1           0.000002153   -0.000004693    0.000019562
     40        7          -0.000000040   -0.000001228    0.000003438
     41        7           0.000002455   -0.000002551    0.000017054
     42        1          -0.000000404   -0.000001836   -0.000004300
     43        7          -0.000000405    0.000002577    0.000000733
     44        1           0.000000882    0.000003205    0.000006151
     45        6          -0.000001366    0.000002704   -0.000008830
     46        1          -0.000001105    0.000004250   -0.000013633
     47        7           0.000000619    0.000005412    0.000000707
     48        6           0.000000387    0.000005724    0.000005012
     49        6           0.000000001   -0.000004252    0.000003281
     50        6           0.000000772    0.000014961    0.000002317
     51        1           0.000001697    0.000006168    0.000013422
     52        6           0.000000845   -0.000003054    0.000008364
     53        1          -0.000000611   -0.000004782   -0.000004510
     54        1           0.000000538   -0.000010610    0.000006619
     55        6           0.000001074    0.000016630    0.000007298
     56        1          -0.000000222    0.000014785   -0.000006378
     57        1           0.000001172    0.000021844    0.000003092
     58        6           0.000001359    0.000005852    0.000004908
     59        1           0.000000300   -0.000009912    0.000007310
     60        1           0.000001782   -0.000002678    0.000016792
     61        1           0.000001042    0.000022566    0.000003884
     62        1           0.000002214    0.000016745    0.000015017
     63        1           0.000001007    0.000007401    0.000009042
     64        1          -0.000000140    0.000005953   -0.000002954
 -------------------------------------------------------------------
 Cartesian Forces:  Max     0.000038248 RMS     0.000010907
 FormGI is forming the generalized inverse of G from B-inverse, IUseBI=4.
 Leave Link  716 at Fri Dec 14 13:56:10 2018, MaxMem=  1342177280 cpu:              26.4 elap:               1.8
 (Enter /gpfs/apps/hpc/Apps/Restricted/Gaussian/Rev_A.03/g16/l9999.exe)

 ----------------------------------------------------------------------

 Electric dipole moment (input orientation):
 (Debye = 10**-18 statcoulomb cm , SI units = C m)
                  (au)            (Debye)         (10**-30 SI)
   Tot        0.328802D+01      0.835731D+01      0.278770D+02
   x          0.310604D+01      0.789477D+01      0.263341D+02
   y          0.107591D+01      0.273470D+01      0.912198D+01
   z         -0.773417D-01     -0.196583D+00     -0.655730D+00

 Dipole polarizability, Alpha (input orientation).
 (esu units = cm**3 , SI units = C**2 m**2 J**-1)
 Alpha(0;0):
               (au)            (10**-24 esu)      (10**-40 SI)
   iso        0.528794D+03      0.783591D+02      0.871863D+02
   aniso      0.476060D+03      0.705448D+02      0.784917D+02
   xx         0.718460D+03      0.106465D+03      0.118458D+03
   yx        -0.229779D+02     -0.340497D+01     -0.378854D+01
   yy         0.650388D+03      0.963775D+02      0.107234D+03
   zx         0.199649D+02      0.295849D+01      0.329176D+01
   zy        -0.282343D+02     -0.418389D+01     -0.465520D+01
   zz         0.217534D+03      0.322352D+02      0.358664D+02

 ----------------------------------------------------------------------

 Dipole orientation:
     6         -0.71312842          0.86358814          3.53644837
     6         -1.31346708          2.80977497          1.80757903
     6         -1.98165163          5.20659843          2.70951619
     6         -2.00528620          5.58226918          5.31647933
     6         -1.38975837          3.63097680          7.00768323
     6         -0.72734287          1.20972134          6.16563770
     6         -0.39019093         -0.50162611         -0.40817142
     1         -2.45468613          6.71789395          1.41247538
     1         -2.50892535          7.42076719          6.06403456
     1         -1.42477203          3.99643325          9.02440329
     6         -0.06537538         -1.21113480         -5.00769731
     6          0.42109879         -2.69653199         -7.17352515
     6          1.04849175         -5.24924955         -6.90552697
     6          1.17568143         -6.23018767         -4.46204460
     6          0.71039593         -4.73279104         -2.32351612
     6          0.07867676         -2.16883587         -2.53931546
     6         -0.47235037          1.09965654         -8.48189866
     1          1.42340463         -6.41602709         -8.54461345
     1          1.65149130         -8.20407357         -4.19853695
     1          0.83446643         -5.58768013         -0.46667856
     7         -1.09538264          1.90366003         -0.64043383
     6         -0.45108986          2.99043509        -12.75872537
     6         -0.88802987          3.25454360        -10.13143056
     6         -1.69358681          5.59700026         -9.17461329
     6         -2.05225525          7.67282437        -10.74555938
     6         -1.57978788          7.36168371        -13.33748420
     6         -0.79483116          5.07292606        -14.37517062
     1         -2.05261005          5.78957979         -7.16518998
     1         -1.85138903          8.95929622        -14.59708610
     6         -2.90902133         10.17971518         -9.69123397
     1         -4.60372908          9.96430774         -8.52749959
     1         -1.45306424         11.02736572         -8.49073962
     1         -3.33414604         11.51334853        -11.20670265
     6         -0.32619276          4.77117878        -17.16123018
     1          1.56763750          4.02944224        -17.52781499
     1         -1.66025145          3.43265756        -18.00400040
     1         -0.52531239          6.57963755        -18.13054124
     8          0.29925894          0.78472045        -13.80584912
     1          0.42611395         -0.48888403        -12.42041402
     7         -0.62944080          1.16410766         -5.89521465
     7          0.15505114         -1.20072999         -9.30694180
     1         -1.04600470          2.62146062         -4.72311068
     7         -0.14499878         -1.20630741          2.08130684
     1          0.39243756         -2.87687624          2.84584793
     6         -0.08264865         -0.81923953          7.91613060
     1         -0.12848799         -0.31170414          9.92324622
     7          0.50675412         -3.04170828          7.14885294
     6          1.15775726         -4.92171749          9.09689373
     6          3.54701686         -4.16181939         10.56642595
     6         -1.04415006         -5.44343346         10.92114822
     1          1.56703201         -6.68487042          8.08993823
     6          4.25592677         -6.15484526         12.54361446
     1          3.18556540         -2.35169535         11.50896455
     1          5.10370485         -3.85616899          9.23954931
     6         -0.32833311         -7.43967820         12.89388769
     1         -1.54504692         -3.67874495         11.88311832
     1         -2.70368851         -6.04199832          9.84203407
     6          2.05569382         -6.67908607         14.35221896
     1          5.92492608         -5.53127290         13.59504035
     1          4.77573079         -7.91664524         11.58199264
     1         -1.91103109         -7.73445158         14.19294134
     1          0.00828022         -9.25057427         11.94058425
     1          2.57407605         -8.15875077         15.70107671
     1          1.66174735         -4.96784247         15.45550720

 Electric dipole moment (dipole orientation):
 (Debye = 10**-18 statcoulomb cm , SI units = C m)
                  (au)            (Debye)         (10**-30 SI)
   Tot        0.328802D+01      0.835731D+01      0.278770D+02
   x          0.000000D+00      0.000000D+00      0.000000D+00
   y          0.000000D+00      0.000000D+00      0.000000D+00
   z          0.328802D+01      0.835731D+01      0.278770D+02

 Dipole polarizability, Alpha (dipole orientation).
 (esu units = cm**3 , SI units = C**2 m**2 J**-1)
 Alpha(0;0):
               (au)            (10**-24 esu)      (10**-40 SI)
   iso        0.528794D+03      0.783591D+02      0.871863D+02
   aniso      0.476060D+03      0.705448D+02      0.784917D+02
   xx         0.245744D+03      0.364154D+02      0.405177D+02
   yx        -0.113491D+03     -0.168177D+02     -0.187122D+02
   yy         0.644402D+03      0.954905D+02      0.106247D+03
   zx        -0.719511D+01     -0.106621D+01     -0.118631D+01
   zy        -0.430419D+02     -0.637815D+01     -0.709664D+01
   zz         0.696236D+03      0.103171D+03      0.114794D+03

 ----------------------------------------------------------------------

 This type of calculation cannot be archived.


 I DON'T PRETEND TO UNDERSTAND THE UNIVERSE --
 IT'S A GREAT DEAL BIGGER THAN I AM.
       -- ATTR. TO WILLIAM ALLINGHAM (1828-89)
 Job cpu time:       0 days  0 hours  0 minutes 42.6 seconds.
 Elapsed time:       0 days  0 hours  0 minutes  3.0 seconds.
 File lengths (MBytes):  RWF=     72 Int=      0 D2E=      0 Chk=     60 Scr=      8
 Normal termination of Gaussian 16 at Fri Dec 14 13:56:11 2018.
