 Entering Gaussian System, Link 0=g16
 Input=cyclohexyl-diBIP-neutral.com
 Output=cyclohexyl-diBIP-neutral.log
 Initial command:
 /gpfs/apps/hpc/Apps/Restricted/Gaussian/Rev_A.03/g16/l1.exe "/gpfs/scratch60/fas/hammes_schiffer/jg2487/c42n01/Gau-73306.inp" -scrdir="/gpfs/scratch60/fas/hammes_schiffer/jg2487/c42n01/"
 Entering Link 1 = /gpfs/apps/hpc/Apps/Restricted/Gaussian/Rev_A.03/g16/l1.exe PID=     73307.
  
 Copyright (c) 1988,1990,1992,1993,1995,1998,2003,2009,2016,
            Gaussian, Inc.  All Rights Reserved.
  
 This is part of the Gaussian(R) 16 program.  It is based on
 the Gaussian(R) 09 system (copyright 2009, Gaussian, Inc.),
 the Gaussian(R) 03 system (copyright 2003, Gaussian, Inc.),
 the Gaussian(R) 98 system (copyright 1998, Gaussian, Inc.),
 the Gaussian(R) 94 system (copyright 1995, Gaussian, Inc.),
 the Gaussian 92(TM) system (copyright 1992, Gaussian, Inc.),
 the Gaussian 90(TM) system (copyright 1990, Gaussian, Inc.),
 the Gaussian 88(TM) system (copyright 1988, Gaussian, Inc.),
 the Gaussian 86(TM) system (copyright 1986, Carnegie Mellon
 University), and the Gaussian 82(TM) system (copyright 1983,
 Carnegie Mellon University). Gaussian is a federally registered
 trademark of Gaussian, Inc.
  
 This software contains proprietary and confidential information,
 including trade secrets, belonging to Gaussian, Inc.
  
 This software is provided under written license and may be
 used, copied, transmitted, or stored only in accord with that
 written license.
  
 The following legend is applicable only to US Government
 contracts under FAR:
  
                    RESTRICTED RIGHTS LEGEND
  
 Use, reproduction and disclosure by the US Government is
 subject to restrictions as set forth in subparagraphs (a)
 and (c) of the Commercial Computer Software - Restricted
 Rights clause in FAR 52.227-19.
  
 Gaussian, Inc.
 340 Quinnipiac St., Bldg. 40, Wallingford CT 06492
  
  
 ---------------------------------------------------------------
 Warning -- This program may not be used in any manner that
 competes with the business of Gaussian, Inc. or will provide
 assistance to any competitor of Gaussian, Inc.  The licensee
 of this program is prohibited from giving any competitor of
 Gaussian, Inc. access to this program.  By using this program,
 the user acknowledges that Gaussian, Inc. is engaged in the
 business of creating and licensing software in the field of
 computational chemistry and represents and warrants to the
 licensee that it is not a competitor of Gaussian, Inc. and that
 it will not use this program in any manner prohibited above.
 ---------------------------------------------------------------
  

 Cite this work as:
 Gaussian 16, Revision A.03,
 M. J. Frisch, G. W. Trucks, H. B. Schlegel, G. E. Scuseria, 
 M. A. Robb, J. R. Cheeseman, G. Scalmani, V. Barone, 
 G. A. Petersson, H. Nakatsuji, X. Li, M. Caricato, A. V. Marenich, 
 J. Bloino, B. G. Janesko, R. Gomperts, B. Mennucci, H. P. Hratchian, 
 J. V. Ortiz, A. F. Izmaylov, J. L. Sonnenberg, D. Williams-Young, 
 F. Ding, F. Lipparini, F. Egidi, J. Goings, B. Peng, A. Petrone, 
 T. Henderson, D. Ranasinghe, V. G. Zakrzewski, J. Gao, N. Rega, 
 G. Zheng, W. Liang, M. Hada, M. Ehara, K. Toyota, R. Fukuda, 
 J. Hasegawa, M. Ishida, T. Nakajima, Y. Honda, O. Kitao, H. Nakai, 
 T. Vreven, K. Throssell, J. A. Montgomery, Jr., J. E. Peralta, 
 F. Ogliaro, M. J. Bearpark, J. J. Heyd, E. N. Brothers, K. N. Kudin, 
 V. N. Staroverov, T. A. Keith, R. Kobayashi, J. Normand, 
 K. Raghavachari, A. P. Rendell, J. C. Burant, S. S. Iyengar, 
 J. Tomasi, M. Cossi, J. M. Millam, M. Klene, C. Adamo, R. Cammi, 
 J. W. Ochterski, R. L. Martin, K. Morokuma, O. Farkas, 
 J. B. Foresman, and D. J. Fox, Gaussian, Inc., Wallingford CT, 2016.
 
 ******************************************
 Gaussian 16:  ES64L-G16RevA.03 25-Dec-2016
                21-Dec-2018 
 ******************************************
 %chk=cyclohexyl-diBIP-neutral.chk
 %mem=10GB
 %nprocshared=16
 Will use up to   16 processors via shared memory.
 ----------------------------------------------------------------
 #p freq(ReadFC,InternalModes) Geom(AllCheck) NoSymm scale=0.9631
 ----------------------------------------------------------------
 1/18=20,29=7,38=1,114=963100/1,3;
 2/9=110,12=2,15=1,40=1/2;
 7/8=21,25=11,30=1/16;
 99/5=2/99;
 Leave Link    1 at Fri Dec 21 18:12:45 2018, MaxMem=  1342177280 cpu:              11.9 elap:               0.8
 (Enter /gpfs/apps/hpc/Apps/Restricted/Gaussian/Rev_A.03/g16/l101.exe)
 Structure from the checkpoint file:  "cyclohexyl-diBIP-neutral.chk"
 ------------------------------------------
 cyclohexylimine diBIP neutral optimization
 ------------------------------------------
 Charge =  0 Multiplicity = 1
 Redundant internal coordinates found in file.  (old form).
 C,0,1.579646,1.136284,-0.019745
 C,0,0.355893,1.840489,-0.092226
 C,0,0.362978,3.230381,-0.262889
 C,0,1.597756,3.869434,-0.36347
 C,0,2.804621,3.153702,-0.289169
 C,0,2.830903,1.763921,-0.117108
 C,0,-0.137715,-0.2523,0.152837
 H,0,-0.566227,3.784842,-0.31811
 H,0,1.632829,4.944331,-0.496917
 H,0,3.746349,3.685758,-0.369261
 C,0,-2.294973,-1.447086,0.243218
 C,0,-3.099072,-2.606364,0.320701
 C,0,-2.500455,-3.862028,0.462987
 C,0,-1.107351,-3.913422,0.519312
 C,0,-0.317965,-2.756965,0.426261
 C,0,-0.89311,-1.48664,0.282551
 C,0,-4.442588,-0.903056,0.118962
 H,0,-3.101625,-4.760623,0.526456
 H,0,-0.615908,-4.872186,0.634263
 H,0,0.760516,-2.852417,0.470382
 N,0,-0.698828,0.948693,0.02132
 C,0,-6.907407,-0.758504,-0.129589
 C,0,-5.652859,-0.106102,-0.004073
 C,0,-5.591059,1.295062,0.000445
 C,0,-6.737564,2.072803,-0.11234
 C,0,-7.960695,1.398395,-0.249255
 C,0,-8.087971,0.006995,-0.264163
 H,0,-4.626123,1.777567,0.105101
 H,0,-8.860185,1.98726,-0.342553
 C,0,-6.632765,3.602781,-0.094821
 C,0,-9.460204,-0.665236,-0.425656
 O,0,-6.985743,-2.108799,-0.127919
 H,0,-6.064722,-2.472012,0.014244
 N,0,-3.168783,-0.393205,0.121262
 N,0,-4.431224,-2.233015,0.236694
 H,0,-2.847068,0.564431,0.031955
 N,0,1.235487,-0.182725,0.137535
 H,0,1.928737,-0.918827,0.199437
 C,0,4.08174,1.017629,-0.038901
 H,0,4.99428,1.618192,-0.124222
 N,0,4.104334,-0.255385,0.116217
 C,0,5.424452,-0.904756,0.179755
 C,0,6.223189,-0.728433,-1.122776
 C,0,6.249245,-0.43377,1.38952
 H,0,5.232464,-1.976407,0.307943
 C,0,7.572009,-1.451524,-1.04862
 H,0,6.391038,0.342368,-1.29054
 H,0,5.631004,-1.096572,-1.965785
 C,0,7.597186,-1.159373,1.459603
 H,0,6.421442,0.645534,1.301154
 H,0,5.674858,-0.593491,2.306775
 C,0,8.390516,-0.984866,0.160142
 H,0,8.129706,-1.289658,-1.976028
 H,0,7.398311,-2.532068,-0.968534
 H,0,8.172723,-0.790951,2.314312
 H,0,7.422579,-2.228855,1.63358
 H,0,9.334991,-1.535121,0.214542
 H,0,8.645678,0.075026,0.033517
 C,0,-5.823565,4.067776,-1.322262
 H,0,-5.708832,5.155979,-1.312118
 H,0,-4.82586,3.621147,-1.327972
 H,0,-6.328601,3.784734,-2.249842
 C,0,-5.907264,4.056108,1.187732
 H,0,-4.898761,3.639775,1.244164
 H,0,-5.821367,5.146489,1.207647
 H,0,-6.455869,3.738729,2.078624
 C,0,-8.012688,4.273603,-0.131216
 H,0,-8.559145,4.02036,-1.043486
 H,0,-8.621763,3.975402,0.72647
 H,0,-7.892483,5.359255,-0.1005
 C,0,-9.472073,-1.512027,-1.715444
 H,0,-8.697785,-2.278585,-1.692806
 H,0,-10.443817,-2.001634,-1.830641
 H,0,-9.306983,-0.876791,-2.590095
 C,0,-9.764863,-1.560093,0.795199
 H,0,-10.744141,-2.031779,0.669086
 H,0,-9.01518,-2.340198,0.915013
 H,0,-9.793595,-0.960055,1.70898
 C,0,-10.59437,0.366618,-0.531112
 H,0,-10.658891,0.990042,0.364579
 H,0,-10.472351,1.023477,-1.396497
 H,0,-11.544965,-0.160808,-0.644661
 Recover connectivity data from disk.
 ITRead=  0  0  0  0  0  0  0  0  0  0  0  0  0  0  0  0  0  0  0  0
 ITRead=  0  0  0  0  0  0  0  0  0  0  0  0  0  0  0  0  0  0  0  0
 ITRead=  0  0  0  0  0  0  0  0  0  0  0  0  0  0  0  0  0  0  0  0
 ITRead=  0  0  0  0  0  0  0  0  0  0  0  0  0  0  0  0  0  0  0  0
 ITRead=  0  0
 MicOpt= -1 -1 -1 -1 -1 -1 -1 -1 -1 -1 -1 -1 -1 -1 -1 -1 -1 -1 -1 -1
 MicOpt= -1 -1 -1 -1 -1 -1 -1 -1 -1 -1 -1 -1 -1 -1 -1 -1 -1 -1 -1 -1
 MicOpt= -1 -1 -1 -1 -1 -1 -1 -1 -1 -1 -1 -1 -1 -1 -1 -1 -1 -1 -1 -1
 MicOpt= -1 -1 -1 -1 -1 -1 -1 -1 -1 -1 -1 -1 -1 -1 -1 -1 -1 -1 -1 -1
 MicOpt= -1 -1
 NAtoms=     82 NQM=       82 NQMF=       0 NMMI=      0 NMMIF=      0
                NMic=       0 NMicF=      0.
                    Isotopes and Nuclear Properties:
 (Nuclear quadrupole moments (NQMom) in fm**2, nuclear magnetic moments (NMagM)
  in nuclear magnetons)

  Atom         1           2           3           4           5           6           7           8           9          10
 IAtWgt=          12          12          12          12          12          12          12           1           1           1
 AtmWgt=  12.0000000  12.0000000  12.0000000  12.0000000  12.0000000  12.0000000  12.0000000   1.0078250   1.0078250   1.0078250
 NucSpn=           0           0           0           0           0           0           0           1           1           1
 AtZEff=   3.6000000   3.6000000   3.6000000   3.6000000   3.6000000   3.6000000   3.6000000   1.0000000   1.0000000   1.0000000
 NQMom=    0.0000000   0.0000000   0.0000000   0.0000000   0.0000000   0.0000000   0.0000000   0.0000000   0.0000000   0.0000000
 NMagM=    0.0000000   0.0000000   0.0000000   0.0000000   0.0000000   0.0000000   0.0000000   2.7928460   2.7928460   2.7928460
 AtZNuc=   6.0000000   6.0000000   6.0000000   6.0000000   6.0000000   6.0000000   6.0000000   1.0000000   1.0000000   1.0000000

  Atom        11          12          13          14          15          16          17          18          19          20
 IAtWgt=          12          12          12          12          12          12          12           1           1           1
 AtmWgt=  12.0000000  12.0000000  12.0000000  12.0000000  12.0000000  12.0000000  12.0000000   1.0078250   1.0078250   1.0078250
 NucSpn=           0           0           0           0           0           0           0           1           1           1
 AtZEff=   3.6000000   3.6000000   3.6000000   3.6000000   3.6000000   3.6000000   3.6000000   1.0000000   1.0000000   1.0000000
 NQMom=    0.0000000   0.0000000   0.0000000   0.0000000   0.0000000   0.0000000   0.0000000   0.0000000   0.0000000   0.0000000
 NMagM=    0.0000000   0.0000000   0.0000000   0.0000000   0.0000000   0.0000000   0.0000000   2.7928460   2.7928460   2.7928460
 AtZNuc=   6.0000000   6.0000000   6.0000000   6.0000000   6.0000000   6.0000000   6.0000000   1.0000000   1.0000000   1.0000000

  Atom        21          22          23          24          25          26          27          28          29          30
 IAtWgt=          14          12          12          12          12          12          12           1           1          12
 AtmWgt=  14.0030740  12.0000000  12.0000000  12.0000000  12.0000000  12.0000000  12.0000000   1.0078250   1.0078250  12.0000000
 NucSpn=           2           0           0           0           0           0           0           1           1           0
 AtZEff=   4.5500000   3.6000000   3.6000000   3.6000000   3.6000000   3.6000000   3.6000000   1.0000000   1.0000000   3.6000000
 NQMom=    2.0440000   0.0000000   0.0000000   0.0000000   0.0000000   0.0000000   0.0000000   0.0000000   0.0000000   0.0000000
 NMagM=    0.4037610   0.0000000   0.0000000   0.0000000   0.0000000   0.0000000   0.0000000   2.7928460   2.7928460   0.0000000
 AtZNuc=   7.0000000   6.0000000   6.0000000   6.0000000   6.0000000   6.0000000   6.0000000   1.0000000   1.0000000   6.0000000

  Atom        31          32          33          34          35          36          37          38          39          40
 IAtWgt=          12          16           1          14          14           1          14           1          12           1
 AtmWgt=  12.0000000  15.9949146   1.0078250  14.0030740  14.0030740   1.0078250  14.0030740   1.0078250  12.0000000   1.0078250
 NucSpn=           0           0           1           2           2           1           2           1           0           1
 AtZEff=   3.6000000   5.6000000   1.0000000   4.5500000   4.5500000   1.0000000   4.5500000   1.0000000   3.6000000   1.0000000
 NQMom=    0.0000000   0.0000000   0.0000000   2.0440000   2.0440000   0.0000000   2.0440000   0.0000000   0.0000000   0.0000000
 NMagM=    0.0000000   0.0000000   2.7928460   0.4037610   0.4037610   2.7928460   0.4037610   2.7928460   0.0000000   2.7928460
 AtZNuc=   6.0000000   8.0000000   1.0000000   7.0000000   7.0000000   1.0000000   7.0000000   1.0000000   6.0000000   1.0000000

  Atom        41          42          43          44          45          46          47          48          49          50
 IAtWgt=          14          12          12          12           1          12           1           1          12           1
 AtmWgt=  14.0030740  12.0000000  12.0000000  12.0000000   1.0078250  12.0000000   1.0078250   1.0078250  12.0000000   1.0078250
 NucSpn=           2           0           0           0           1           0           1           1           0           1
 AtZEff=   4.5500000   3.6000000   3.6000000   3.6000000   1.0000000   3.6000000   1.0000000   1.0000000   3.6000000   1.0000000
 NQMom=    2.0440000   0.0000000   0.0000000   0.0000000   0.0000000   0.0000000   0.0000000   0.0000000   0.0000000   0.0000000
 NMagM=    0.4037610   0.0000000   0.0000000   0.0000000   2.7928460   0.0000000   2.7928460   2.7928460   0.0000000   2.7928460
 AtZNuc=   7.0000000   6.0000000   6.0000000   6.0000000   1.0000000   6.0000000   1.0000000   1.0000000   6.0000000   1.0000000

  Atom        51          52          53          54          55          56          57          58          59          60
 IAtWgt=           1          12           1           1           1           1           1           1          12           1
 AtmWgt=   1.0078250  12.0000000   1.0078250   1.0078250   1.0078250   1.0078250   1.0078250   1.0078250  12.0000000   1.0078250
 NucSpn=           1           0           1           1           1           1           1           1           0           1
 AtZEff=   1.0000000   3.6000000   1.0000000   1.0000000   1.0000000   1.0000000   1.0000000   1.0000000   3.6000000   1.0000000
 NQMom=    0.0000000   0.0000000   0.0000000   0.0000000   0.0000000   0.0000000   0.0000000   0.0000000   0.0000000   0.0000000
 NMagM=    2.7928460   0.0000000   2.7928460   2.7928460   2.7928460   2.7928460   2.7928460   2.7928460   0.0000000   2.7928460
 AtZNuc=   1.0000000   6.0000000   1.0000000   1.0000000   1.0000000   1.0000000   1.0000000   1.0000000   6.0000000   1.0000000

  Atom        61          62          63          64          65          66          67          68          69          70
 IAtWgt=           1           1          12           1           1           1          12           1           1           1
 AtmWgt=   1.0078250   1.0078250  12.0000000   1.0078250   1.0078250   1.0078250  12.0000000   1.0078250   1.0078250   1.0078250
 NucSpn=           1           1           0           1           1           1           0           1           1           1
 AtZEff=   1.0000000   1.0000000   3.6000000   1.0000000   1.0000000   1.0000000   3.6000000   1.0000000   1.0000000   1.0000000
 NQMom=    0.0000000   0.0000000   0.0000000   0.0000000   0.0000000   0.0000000   0.0000000   0.0000000   0.0000000   0.0000000
 NMagM=    2.7928460   2.7928460   0.0000000   2.7928460   2.7928460   2.7928460   0.0000000   2.7928460   2.7928460   2.7928460
 AtZNuc=   1.0000000   1.0000000   6.0000000   1.0000000   1.0000000   1.0000000   6.0000000   1.0000000   1.0000000   1.0000000

  Atom        71          72          73          74          75          76          77          78          79          80
 IAtWgt=          12           1           1           1          12           1           1           1          12           1
 AtmWgt=  12.0000000   1.0078250   1.0078250   1.0078250  12.0000000   1.0078250   1.0078250   1.0078250  12.0000000   1.0078250
 NucSpn=           0           1           1           1           0           1           1           1           0           1
 AtZEff=   3.6000000   1.0000000   1.0000000   1.0000000   3.6000000   1.0000000   1.0000000   1.0000000   3.6000000   1.0000000
 NQMom=    0.0000000   0.0000000   0.0000000   0.0000000   0.0000000   0.0000000   0.0000000   0.0000000   0.0000000   0.0000000
 NMagM=    0.0000000   2.7928460   2.7928460   2.7928460   0.0000000   2.7928460   2.7928460   2.7928460   0.0000000   2.7928460
 AtZNuc=   6.0000000   1.0000000   1.0000000   1.0000000   6.0000000   1.0000000   1.0000000   1.0000000   6.0000000   1.0000000

  Atom        81          82
 IAtWgt=           1           1
 AtmWgt=   1.0078250   1.0078250
 NucSpn=           1           1
 AtZEff=   1.0000000   1.0000000
 NQMom=    0.0000000   0.0000000
 NMagM=    2.7928460   2.7928460
 AtZNuc=   1.0000000   1.0000000
 Leave Link  101 at Fri Dec 21 18:12:45 2018, MaxMem=  1342177280 cpu:               6.8 elap:               0.5
 (Enter /gpfs/apps/hpc/Apps/Restricted/Gaussian/Rev_A.03/g16/l103.exe)

 GradGradGradGradGradGradGradGradGradGradGradGradGradGradGradGradGradGrad
 Berny optimization.
 Initialization pass.
                           ----------------------------
                           !    Initial Parameters    !
                           ! (Angstroms and Degrees)  !
 --------------------------                            --------------------------
 ! Name  Definition              Value          Derivative Info.                !
 --------------------------------------------------------------------------------
 ! R1    R(1,2)                  1.4138         estimate D2E/DX2                !
 ! R2    R(1,6)                  1.4032         estimate D2E/DX2                !
 ! R3    R(1,37)                 1.3722         estimate D2E/DX2                !
 ! R4    R(2,3)                  1.4003         estimate D2E/DX2                !
 ! R5    R(2,21)                 1.3859         estimate D2E/DX2                !
 ! R6    R(3,4)                  1.394          estimate D2E/DX2                !
 ! R7    R(3,8)                  1.0835         estimate D2E/DX2                !
 ! R8    R(4,5)                  1.4051         estimate D2E/DX2                !
 ! R9    R(4,9)                  1.0837         estimate D2E/DX2                !
 ! R10   R(5,6)                  1.4006         estimate D2E/DX2                !
 ! R11   R(5,10)                 1.0846         estimate D2E/DX2                !
 ! R12   R(6,39)                 1.4587         estimate D2E/DX2                !
 ! R13   R(7,16)                 1.4529         estimate D2E/DX2                !
 ! R14   R(7,21)                 1.3321         estimate D2E/DX2                !
 ! R15   R(7,37)                 1.375          estimate D2E/DX2                !
 ! R16   R(11,12)                1.413          estimate D2E/DX2                !
 ! R17   R(11,16)                1.403          estimate D2E/DX2                !
 ! R18   R(11,34)                1.3744         estimate D2E/DX2                !
 ! R19   R(12,13)                1.3983         estimate D2E/DX2                !
 ! R20   R(12,35)                1.386          estimate D2E/DX2                !
 ! R21   R(13,14)                1.3952         estimate D2E/DX2                !
 ! R22   R(13,18)                1.083          estimate D2E/DX2                !
 ! R23   R(14,15)                1.4033         estimate D2E/DX2                !
 ! R24   R(14,19)                1.0835         estimate D2E/DX2                !
 ! R25   R(15,16)                1.4018         estimate D2E/DX2                !
 ! R26   R(15,20)                1.0836         estimate D2E/DX2                !
 ! R27   R(17,23)                1.4543         estimate D2E/DX2                !
 ! R28   R(17,34)                1.3721         estimate D2E/DX2                !
 ! R29   R(17,35)                1.3352         estimate D2E/DX2                !
 ! R30   R(22,23)                1.4196         estimate D2E/DX2                !
 ! R31   R(22,27)                1.4134         estimate D2E/DX2                !
 ! R32   R(22,32)                1.3526         estimate D2E/DX2                !
 ! R33   R(23,24)                1.4025         estimate D2E/DX2                !
 ! R34   R(24,25)                1.39           estimate D2E/DX2                !
 ! R35   R(24,28)                1.0839         estimate D2E/DX2                !
 ! R36   R(25,26)                1.4034         estimate D2E/DX2                !
 ! R37   R(25,30)                1.5337         estimate D2E/DX2                !
 ! R38   R(26,27)                1.3973         estimate D2E/DX2                !
 ! R39   R(26,29)                1.0791         estimate D2E/DX2                !
 ! R40   R(27,31)                1.5366         estimate D2E/DX2                !
 ! R41   R(30,59)                1.542          estimate D2E/DX2                !
 ! R42   R(30,63)                1.5417         estimate D2E/DX2                !
 ! R43   R(30,67)                1.5348         estimate D2E/DX2                !
 ! R44   R(31,71)                1.543          estimate D2E/DX2                !
 ! R45   R(31,75)                1.544          estimate D2E/DX2                !
 ! R46   R(31,79)                1.5369         estimate D2E/DX2                !
 ! R47   R(32,33)                1.0002         estimate D2E/DX2                !
 ! R48   R(34,36)                1.0142         estimate D2E/DX2                !
 ! R49   R(37,38)                1.0131         estimate D2E/DX2                !
 ! R50   R(39,40)                1.0958         estimate D2E/DX2                !
 ! R51   R(39,41)                1.2826         estimate D2E/DX2                !
 ! R52   R(41,42)                1.4726         estimate D2E/DX2                !
 ! R53   R(42,43)                1.5381         estimate D2E/DX2                !
 ! R54   R(42,44)                1.5381         estimate D2E/DX2                !
 ! R55   R(42,45)                1.0962         estimate D2E/DX2                !
 ! R56   R(43,46)                1.5322         estimate D2E/DX2                !
 ! R57   R(43,47)                1.0968         estimate D2E/DX2                !
 ! R58   R(43,48)                1.094          estimate D2E/DX2                !
 ! R59   R(44,49)                1.5324         estimate D2E/DX2                !
 ! R60   R(44,50)                1.0965         estimate D2E/DX2                !
 ! R61   R(44,51)                1.094          estimate D2E/DX2                !
 ! R62   R(46,52)                1.5326         estimate D2E/DX2                !
 ! R63   R(46,53)                1.0942         estimate D2E/DX2                !
 ! R64   R(46,54)                1.0973         estimate D2E/DX2                !
 ! R65   R(49,52)                1.5325         estimate D2E/DX2                !
 ! R66   R(49,55)                1.0943         estimate D2E/DX2                !
 ! R67   R(49,56)                1.0975         estimate D2E/DX2                !
 ! R68   R(52,57)                1.0944         estimate D2E/DX2                !
 ! R69   R(52,58)                1.0975         estimate D2E/DX2                !
 ! R70   R(59,60)                1.0943         estimate D2E/DX2                !
 ! R71   R(59,61)                1.0931         estimate D2E/DX2                !
 ! R72   R(59,62)                1.0934         estimate D2E/DX2                !
 ! R73   R(63,64)                1.0925         estimate D2E/DX2                !
 ! R74   R(63,65)                1.0939         estimate D2E/DX2                !
 ! R75   R(63,66)                1.0933         estimate D2E/DX2                !
 ! R76   R(67,68)                1.0932         estimate D2E/DX2                !
 ! R77   R(67,69)                1.0934         estimate D2E/DX2                !
 ! R78   R(67,70)                1.0927         estimate D2E/DX2                !
 ! R79   R(71,72)                1.0898         estimate D2E/DX2                !
 ! R80   R(71,73)                1.0942         estimate D2E/DX2                !
 ! R81   R(71,74)                1.0935         estimate D2E/DX2                !
 ! R82   R(75,76)                1.0942         estimate D2E/DX2                !
 ! R83   R(75,77)                1.0886         estimate D2E/DX2                !
 ! R84   R(75,78)                1.0936         estimate D2E/DX2                !
 ! R85   R(79,80)                1.0932         estimate D2E/DX2                !
 ! R86   R(79,81)                1.0933         estimate D2E/DX2                !
 ! R87   R(79,82)                1.093          estimate D2E/DX2                !
 ! A1    A(2,1,6)              123.059          estimate D2E/DX2                !
 ! A2    A(2,1,37)             105.5199         estimate D2E/DX2                !
 ! A3    A(6,1,37)             131.417          estimate D2E/DX2                !
 ! A4    A(1,2,3)              119.7526         estimate D2E/DX2                !
 ! A5    A(1,2,21)             109.5142         estimate D2E/DX2                !
 ! A6    A(3,2,21)             130.7321         estimate D2E/DX2                !
 ! A7    A(2,3,4)              117.9233         estimate D2E/DX2                !
 ! A8    A(2,3,8)              120.6504         estimate D2E/DX2                !
 ! A9    A(4,3,8)              121.4258         estimate D2E/DX2                !
 ! A10   A(3,4,5)              121.5664         estimate D2E/DX2                !
 ! A11   A(3,4,9)              119.4892         estimate D2E/DX2                !
 ! A12   A(5,4,9)              118.9436         estimate D2E/DX2                !
 ! A13   A(4,5,6)              121.8734         estimate D2E/DX2                !
 ! A14   A(4,5,10)             119.4715         estimate D2E/DX2                !
 ! A15   A(6,5,10)             118.6549         estimate D2E/DX2                !
 ! A16   A(1,6,5)              115.8238         estimate D2E/DX2                !
 ! A17   A(1,6,39)             122.1471         estimate D2E/DX2                !
 ! A18   A(5,6,39)             122.0287         estimate D2E/DX2                !
 ! A19   A(16,7,21)            123.7619         estimate D2E/DX2                !
 ! A20   A(16,7,37)            124.2765         estimate D2E/DX2                !
 ! A21   A(21,7,37)            111.9587         estimate D2E/DX2                !
 ! A22   A(12,11,16)           122.9538         estimate D2E/DX2                !
 ! A23   A(12,11,34)           105.7932         estimate D2E/DX2                !
 ! A24   A(16,11,34)           131.2511         estimate D2E/DX2                !
 ! A25   A(11,12,13)           119.9146         estimate D2E/DX2                !
 ! A26   A(11,12,35)           108.8224         estimate D2E/DX2                !
 ! A27   A(13,12,35)           131.2627         estimate D2E/DX2                !
 ! A28   A(12,13,14)           117.6873         estimate D2E/DX2                !
 ! A29   A(12,13,18)           120.8909         estimate D2E/DX2                !
 ! A30   A(14,13,18)           121.4217         estimate D2E/DX2                !
 ! A31   A(13,14,15)           121.9147         estimate D2E/DX2                !
 ! A32   A(13,14,19)           119.3257         estimate D2E/DX2                !
 ! A33   A(15,14,19)           118.7592         estimate D2E/DX2                !
 ! A34   A(14,15,16)           121.5202         estimate D2E/DX2                !
 ! A35   A(14,15,20)           118.9851         estimate D2E/DX2                !
 ! A36   A(16,15,20)           119.4944         estimate D2E/DX2                !
 ! A37   A(7,16,11)            119.5407         estimate D2E/DX2                !
 ! A38   A(7,16,15)            124.45           estimate D2E/DX2                !
 ! A39   A(11,16,15)           116.0002         estimate D2E/DX2                !
 ! A40   A(23,17,34)           124.6883         estimate D2E/DX2                !
 ! A41   A(23,17,35)           124.0822         estimate D2E/DX2                !
 ! A42   A(34,17,35)           111.2284         estimate D2E/DX2                !
 ! A43   A(2,21,7)             105.5257         estimate D2E/DX2                !
 ! A44   A(23,22,27)           119.8447         estimate D2E/DX2                !
 ! A45   A(23,22,32)           120.6551         estimate D2E/DX2                !
 ! A46   A(27,22,32)           119.4996         estimate D2E/DX2                !
 ! A47   A(17,23,22)           119.4114         estimate D2E/DX2                !
 ! A48   A(17,23,24)           120.6982         estimate D2E/DX2                !
 ! A49   A(22,23,24)           119.8904         estimate D2E/DX2                !
 ! A50   A(23,24,25)           121.4918         estimate D2E/DX2                !
 ! A51   A(23,24,28)           118.9636         estimate D2E/DX2                !
 ! A52   A(25,24,28)           119.5413         estimate D2E/DX2                !
 ! A53   A(24,25,26)           117.2517         estimate D2E/DX2                !
 ! A54   A(24,25,30)           120.0593         estimate D2E/DX2                !
 ! A55   A(26,25,30)           122.6874         estimate D2E/DX2                !
 ! A56   A(25,26,27)           123.9828         estimate D2E/DX2                !
 ! A57   A(25,26,29)           118.2066         estimate D2E/DX2                !
 ! A58   A(27,26,29)           117.8095         estimate D2E/DX2                !
 ! A59   A(22,27,26)           117.5295         estimate D2E/DX2                !
 ! A60   A(22,27,31)           121.2642         estimate D2E/DX2                !
 ! A61   A(26,27,31)           121.206          estimate D2E/DX2                !
 ! A62   A(25,30,59)           109.1234         estimate D2E/DX2                !
 ! A63   A(25,30,63)           109.5725         estimate D2E/DX2                !
 ! A64   A(25,30,67)           111.9825         estimate D2E/DX2                !
 ! A65   A(59,30,63)           109.0622         estimate D2E/DX2                !
 ! A66   A(59,30,67)           108.7329         estimate D2E/DX2                !
 ! A67   A(63,30,67)           108.3195         estimate D2E/DX2                !
 ! A68   A(27,31,71)           109.5618         estimate D2E/DX2                !
 ! A69   A(27,31,75)           110.2832         estimate D2E/DX2                !
 ! A70   A(27,31,79)           111.8708         estimate D2E/DX2                !
 ! A71   A(71,31,75)           109.9601         estimate D2E/DX2                !
 ! A72   A(71,31,79)           107.7835         estimate D2E/DX2                !
 ! A73   A(75,31,79)           107.3221         estimate D2E/DX2                !
 ! A74   A(22,32,33)           108.0214         estimate D2E/DX2                !
 ! A75   A(11,34,17)           107.7853         estimate D2E/DX2                !
 ! A76   A(11,34,36)           122.0167         estimate D2E/DX2                !
 ! A77   A(17,34,36)           130.1836         estimate D2E/DX2                !
 ! A78   A(12,35,17)           106.3695         estimate D2E/DX2                !
 ! A79   A(1,37,7)             107.4805         estimate D2E/DX2                !
 ! A80   A(1,37,38)            122.2638         estimate D2E/DX2                !
 ! A81   A(7,37,38)            130.2372         estimate D2E/DX2                !
 ! A82   A(6,39,40)            115.4394         estimate D2E/DX2                !
 ! A83   A(6,39,41)            121.964          estimate D2E/DX2                !
 ! A84   A(40,39,41)           122.5964         estimate D2E/DX2                !
 ! A85   A(39,41,42)           117.3023         estimate D2E/DX2                !
 ! A86   A(41,42,43)           112.2382         estimate D2E/DX2                !
 ! A87   A(41,42,44)           112.3114         estimate D2E/DX2                !
 ! A88   A(41,42,45)           106.2085         estimate D2E/DX2                !
 ! A89   A(43,42,44)           110.641          estimate D2E/DX2                !
 ! A90   A(43,42,45)           107.5805         estimate D2E/DX2                !
 ! A91   A(44,42,45)           107.5354         estimate D2E/DX2                !
 ! A92   A(42,43,46)           111.2272         estimate D2E/DX2                !
 ! A93   A(42,43,47)           108.7194         estimate D2E/DX2                !
 ! A94   A(42,43,48)           109.4439         estimate D2E/DX2                !
 ! A95   A(46,43,47)           109.477          estimate D2E/DX2                !
 ! A96   A(46,43,48)           110.7932         estimate D2E/DX2                !
 ! A97   A(47,43,48)           107.0678         estimate D2E/DX2                !
 ! A98   A(42,44,49)           111.2643         estimate D2E/DX2                !
 ! A99   A(42,44,50)           108.7984         estimate D2E/DX2                !
 ! A100  A(42,44,51)           109.4646         estimate D2E/DX2                !
 ! A101  A(49,44,50)           109.3668         estimate D2E/DX2                !
 ! A102  A(49,44,51)           110.754          estimate D2E/DX2                !
 ! A103  A(50,44,51)           107.0814         estimate D2E/DX2                !
 ! A104  A(43,46,52)           111.3842         estimate D2E/DX2                !
 ! A105  A(43,46,53)           109.7454         estimate D2E/DX2                !
 ! A106  A(43,46,54)           109.2014         estimate D2E/DX2                !
 ! A107  A(52,46,53)           110.5623         estimate D2E/DX2                !
 ! A108  A(52,46,54)           109.075          estimate D2E/DX2                !
 ! A109  A(53,46,54)           106.75           estimate D2E/DX2                !
 ! A110  A(44,49,52)           111.2637         estimate D2E/DX2                !
 ! A111  A(44,49,55)           109.8114         estimate D2E/DX2                !
 ! A112  A(44,49,56)           109.1906         estimate D2E/DX2                !
 ! A113  A(52,49,55)           110.5908         estimate D2E/DX2                !
 ! A114  A(52,49,56)           109.1318         estimate D2E/DX2                !
 ! A115  A(55,49,56)           106.7343         estimate D2E/DX2                !
 ! A116  A(46,52,49)           110.9552         estimate D2E/DX2                !
 ! A117  A(46,52,57)           110.3043         estimate D2E/DX2                !
 ! A118  A(46,52,58)           109.1004         estimate D2E/DX2                !
 ! A119  A(49,52,57)           110.3254         estimate D2E/DX2                !
 ! A120  A(49,52,58)           109.1574         estimate D2E/DX2                !
 ! A121  A(57,52,58)           106.8966         estimate D2E/DX2                !
 ! A122  A(30,59,60)           110.3363         estimate D2E/DX2                !
 ! A123  A(30,59,61)           111.0955         estimate D2E/DX2                !
 ! A124  A(30,59,62)           110.7835         estimate D2E/DX2                !
 ! A125  A(60,59,61)           108.0992         estimate D2E/DX2                !
 ! A126  A(60,59,62)           108.2831         estimate D2E/DX2                !
 ! A127  A(61,59,62)           108.1418         estimate D2E/DX2                !
 ! A128  A(30,63,64)           111.4271         estimate D2E/DX2                !
 ! A129  A(30,63,65)           110.1931         estimate D2E/DX2                !
 ! A130  A(30,63,66)           110.8787         estimate D2E/DX2                !
 ! A131  A(64,63,65)           107.8432         estimate D2E/DX2                !
 ! A132  A(64,63,66)           108.0879         estimate D2E/DX2                !
 ! A133  A(65,63,66)           108.2948         estimate D2E/DX2                !
 ! A134  A(30,67,68)           111.5917         estimate D2E/DX2                !
 ! A135  A(30,67,69)           111.287          estimate D2E/DX2                !
 ! A136  A(30,67,70)           109.5533         estimate D2E/DX2                !
 ! A137  A(68,67,69)           108.2389         estimate D2E/DX2                !
 ! A138  A(68,67,70)           107.9757         estimate D2E/DX2                !
 ! A139  A(69,67,70)           108.0709         estimate D2E/DX2                !
 ! A140  A(31,71,72)           111.2969         estimate D2E/DX2                !
 ! A141  A(31,71,73)           109.9015         estimate D2E/DX2                !
 ! A142  A(31,71,74)           110.4039         estimate D2E/DX2                !
 ! A143  A(72,71,73)           108.5677         estimate D2E/DX2                !
 ! A144  A(72,71,74)           108.5397         estimate D2E/DX2                !
 ! A145  A(73,71,74)           108.0471         estimate D2E/DX2                !
 ! A146  A(31,75,76)           109.5893         estimate D2E/DX2                !
 ! A147  A(31,75,77)           111.4984         estimate D2E/DX2                !
 ! A148  A(31,75,78)           110.3578         estimate D2E/DX2                !
 ! A149  A(76,75,77)           108.6694         estimate D2E/DX2                !
 ! A150  A(76,75,78)           108.0179         estimate D2E/DX2                !
 ! A151  A(77,75,78)           108.6235         estimate D2E/DX2                !
 ! A152  A(31,79,80)           111.728          estimate D2E/DX2                !
 ! A153  A(31,79,81)           112.0443         estimate D2E/DX2                !
 ! A154  A(31,79,82)           108.9623         estimate D2E/DX2                !
 ! A155  A(80,79,81)           108.21           estimate D2E/DX2                !
 ! A156  A(80,79,82)           107.9969         estimate D2E/DX2                !
 ! A157  A(81,79,82)           107.7433         estimate D2E/DX2                !
 ! D1    D(6,1,2,3)             -0.2936         estimate D2E/DX2                !
 ! D2    D(6,1,2,21)           179.3614         estimate D2E/DX2                !
 ! D3    D(37,1,2,3)          -179.6333         estimate D2E/DX2                !
 ! D4    D(37,1,2,21)            0.0217         estimate D2E/DX2                !
 ! D5    D(2,1,6,5)              0.1985         estimate D2E/DX2                !
 ! D6    D(2,1,6,39)           179.9655         estimate D2E/DX2                !
 ! D7    D(37,1,6,5)           179.3501         estimate D2E/DX2                !
 ! D8    D(37,1,6,39)           -0.8829         estimate D2E/DX2                !
 ! D9    D(2,1,37,7)             0.1759         estimate D2E/DX2                !
 ! D10   D(2,1,37,38)          178.7614         estimate D2E/DX2                !
 ! D11   D(6,1,37,7)          -179.0861         estimate D2E/DX2                !
 ! D12   D(6,1,37,38)           -0.5007         estimate D2E/DX2                !
 ! D13   D(1,2,3,4)              0.3729         estimate D2E/DX2                !
 ! D14   D(1,2,3,8)           -179.8634         estimate D2E/DX2                !
 ! D15   D(21,2,3,4)          -179.1979         estimate D2E/DX2                !
 ! D16   D(21,2,3,8)             0.5657         estimate D2E/DX2                !
 ! D17   D(1,2,21,7)            -0.2147         estimate D2E/DX2                !
 ! D18   D(3,2,21,7)           179.39           estimate D2E/DX2                !
 ! D19   D(2,3,4,5)             -0.3872         estimate D2E/DX2                !
 ! D20   D(2,3,4,9)            179.9439         estimate D2E/DX2                !
 ! D21   D(8,3,4,5)            179.8511         estimate D2E/DX2                !
 ! D22   D(8,3,4,9)              0.1822         estimate D2E/DX2                !
 ! D23   D(3,4,5,6)              0.3117         estimate D2E/DX2                !
 ! D24   D(3,4,5,10)          -179.8573         estimate D2E/DX2                !
 ! D25   D(9,4,5,6)            179.9824         estimate D2E/DX2                !
 ! D26   D(9,4,5,10)            -0.1867         estimate D2E/DX2                !
 ! D27   D(4,5,6,1)             -0.2031         estimate D2E/DX2                !
 ! D28   D(4,5,6,39)          -179.9704         estimate D2E/DX2                !
 ! D29   D(10,5,6,1)           179.9646         estimate D2E/DX2                !
 ! D30   D(10,5,6,39)            0.1973         estimate D2E/DX2                !
 ! D31   D(1,6,39,40)         -179.7739         estimate D2E/DX2                !
 ! D32   D(1,6,39,41)            0.3782         estimate D2E/DX2                !
 ! D33   D(5,6,39,40)           -0.0213         estimate D2E/DX2                !
 ! D34   D(5,6,39,41)         -179.8692         estimate D2E/DX2                !
 ! D35   D(21,7,16,11)           1.3693         estimate D2E/DX2                !
 ! D36   D(21,7,16,15)        -179.7696         estimate D2E/DX2                !
 ! D37   D(37,7,16,11)        -177.9569         estimate D2E/DX2                !
 ! D38   D(37,7,16,15)           0.9042         estimate D2E/DX2                !
 ! D39   D(16,7,21,2)         -179.0651         estimate D2E/DX2                !
 ! D40   D(37,7,21,2)            0.3346         estimate D2E/DX2                !
 ! D41   D(16,7,37,1)          179.0658         estimate D2E/DX2                !
 ! D42   D(16,7,37,38)           0.6328         estimate D2E/DX2                !
 ! D43   D(21,7,37,1)           -0.3302         estimate D2E/DX2                !
 ! D44   D(21,7,37,38)        -178.7632         estimate D2E/DX2                !
 ! D45   D(16,11,12,13)          0.9719         estimate D2E/DX2                !
 ! D46   D(16,11,12,35)       -179.2078         estimate D2E/DX2                !
 ! D47   D(34,11,12,13)       -179.4736         estimate D2E/DX2                !
 ! D48   D(34,11,12,35)          0.3468         estimate D2E/DX2                !
 ! D49   D(12,11,16,7)         177.9846         estimate D2E/DX2                !
 ! D50   D(12,11,16,15)         -0.9705         estimate D2E/DX2                !
 ! D51   D(34,11,16,7)          -1.4452         estimate D2E/DX2                !
 ! D52   D(34,11,16,15)        179.5997         estimate D2E/DX2                !
 ! D53   D(12,11,34,17)         -0.2985         estimate D2E/DX2                !
 ! D54   D(12,11,34,36)       -179.051          estimate D2E/DX2                !
 ! D55   D(16,11,34,17)        179.2043         estimate D2E/DX2                !
 ! D56   D(16,11,34,36)          0.4518         estimate D2E/DX2                !
 ! D57   D(11,12,13,14)         -0.1776         estimate D2E/DX2                !
 ! D58   D(11,12,13,18)        179.8448         estimate D2E/DX2                !
 ! D59   D(35,12,13,14)       -179.9514         estimate D2E/DX2                !
 ! D60   D(35,12,13,18)          0.0709         estimate D2E/DX2                !
 ! D61   D(11,12,35,17)         -0.2589         estimate D2E/DX2                !
 ! D62   D(13,12,35,17)        179.5339         estimate D2E/DX2                !
 ! D63   D(12,13,14,15)         -0.5493         estimate D2E/DX2                !
 ! D64   D(12,13,14,19)        179.6959         estimate D2E/DX2                !
 ! D65   D(18,13,14,15)        179.4282         estimate D2E/DX2                !
 ! D66   D(18,13,14,19)         -0.3266         estimate D2E/DX2                !
 ! D67   D(13,14,15,16)          0.534          estimate D2E/DX2                !
 ! D68   D(13,14,15,20)       -179.6786         estimate D2E/DX2                !
 ! D69   D(19,14,15,16)       -179.7098         estimate D2E/DX2                !
 ! D70   D(19,14,15,20)          0.0776         estimate D2E/DX2                !
 ! D71   D(14,15,16,7)        -178.6734         estimate D2E/DX2                !
 ! D72   D(14,15,16,11)          0.2242         estimate D2E/DX2                !
 ! D73   D(20,15,16,7)           1.5403         estimate D2E/DX2                !
 ! D74   D(20,15,16,11)       -179.5622         estimate D2E/DX2                !
 ! D75   D(34,17,23,22)        173.6531         estimate D2E/DX2                !
 ! D76   D(34,17,23,24)         -6.3567         estimate D2E/DX2                !
 ! D77   D(35,17,23,22)         -5.9269         estimate D2E/DX2                !
 ! D78   D(35,17,23,24)        174.0634         estimate D2E/DX2                !
 ! D79   D(23,17,34,11)       -179.4773         estimate D2E/DX2                !
 ! D80   D(23,17,34,36)         -0.8619         estimate D2E/DX2                !
 ! D81   D(35,17,34,11)          0.1495         estimate D2E/DX2                !
 ! D82   D(35,17,34,36)        178.7649         estimate D2E/DX2                !
 ! D83   D(23,17,35,12)        179.6997         estimate D2E/DX2                !
 ! D84   D(34,17,35,12)          0.0703         estimate D2E/DX2                !
 ! D85   D(27,22,23,17)       -179.3223         estimate D2E/DX2                !
 ! D86   D(27,22,23,24)          0.6874         estimate D2E/DX2                !
 ! D87   D(32,22,23,17)          0.3781         estimate D2E/DX2                !
 ! D88   D(32,22,23,24)       -179.6122         estimate D2E/DX2                !
 ! D89   D(23,22,27,26)         -0.8271         estimate D2E/DX2                !
 ! D90   D(23,22,27,31)        178.9715         estimate D2E/DX2                !
 ! D91   D(32,22,27,26)        179.4691         estimate D2E/DX2                !
 ! D92   D(32,22,27,31)         -0.7323         estimate D2E/DX2                !
 ! D93   D(23,22,32,33)          2.6313         estimate D2E/DX2                !
 ! D94   D(27,22,32,33)       -177.6672         estimate D2E/DX2                !
 ! D95   D(17,23,24,25)       -179.8175         estimate D2E/DX2                !
 ! D96   D(17,23,24,28)         -0.4767         estimate D2E/DX2                !
 ! D97   D(22,23,24,25)          0.1728         estimate D2E/DX2                !
 ! D98   D(22,23,24,28)        179.5136         estimate D2E/DX2                !
 ! D99   D(23,24,25,26)         -0.8328         estimate D2E/DX2                !
 ! D100  D(23,24,25,30)        179.6159         estimate D2E/DX2                !
 ! D101  D(28,24,25,26)        179.8302         estimate D2E/DX2                !
 ! D102  D(28,24,25,30)          0.2788         estimate D2E/DX2                !
 ! D103  D(24,25,26,27)          0.6842         estimate D2E/DX2                !
 ! D104  D(24,25,26,29)       -179.7258         estimate D2E/DX2                !
 ! D105  D(30,25,26,27)       -179.7772         estimate D2E/DX2                !
 ! D106  D(30,25,26,29)         -0.1871         estimate D2E/DX2                !
 ! D107  D(24,25,30,59)         63.5973         estimate D2E/DX2                !
 ! D108  D(24,25,30,63)        -55.7531         estimate D2E/DX2                !
 ! D109  D(24,25,30,67)       -175.9695         estimate D2E/DX2                !
 ! D110  D(26,25,30,59)       -115.9288         estimate D2E/DX2                !
 ! D111  D(26,25,30,63)        124.7208         estimate D2E/DX2                !
 ! D112  D(26,25,30,67)          4.5044         estimate D2E/DX2                !
 ! D113  D(25,26,27,22)          0.1423         estimate D2E/DX2                !
 ! D114  D(25,26,27,31)       -179.6564         estimate D2E/DX2                !
 ! D115  D(29,26,27,22)       -179.4493         estimate D2E/DX2                !
 ! D116  D(29,26,27,31)          0.752          estimate D2E/DX2                !
 ! D117  D(22,27,31,71)        -61.447          estimate D2E/DX2                !
 ! D118  D(22,27,31,75)         59.721          estimate D2E/DX2                !
 ! D119  D(22,27,31,79)        179.0875         estimate D2E/DX2                !
 ! D120  D(26,27,31,71)        118.3442         estimate D2E/DX2                !
 ! D121  D(26,27,31,75)       -120.4879         estimate D2E/DX2                !
 ! D122  D(26,27,31,79)         -1.1213         estimate D2E/DX2                !
 ! D123  D(25,30,59,60)       -178.1739         estimate D2E/DX2                !
 ! D124  D(25,30,59,61)        -58.2999         estimate D2E/DX2                !
 ! D125  D(25,30,59,62)         61.924          estimate D2E/DX2                !
 ! D126  D(63,30,59,60)        -58.5075         estimate D2E/DX2                !
 ! D127  D(63,30,59,61)         61.3665         estimate D2E/DX2                !
 ! D128  D(63,30,59,62)       -178.4096         estimate D2E/DX2                !
 ! D129  D(67,30,59,60)         59.4187         estimate D2E/DX2                !
 ! D130  D(67,30,59,61)        179.2927         estimate D2E/DX2                !
 ! D131  D(67,30,59,62)        -60.4833         estimate D2E/DX2                !
 ! D132  D(25,30,63,64)         59.9754         estimate D2E/DX2                !
 ! D133  D(25,30,63,65)        179.649          estimate D2E/DX2                !
 ! D134  D(25,30,63,66)        -60.4662         estimate D2E/DX2                !
 ! D135  D(59,30,63,64)        -59.4127         estimate D2E/DX2                !
 ! D136  D(59,30,63,65)         60.261          estimate D2E/DX2                !
 ! D137  D(59,30,63,66)       -179.8542         estimate D2E/DX2                !
 ! D138  D(67,30,63,64)       -177.5988         estimate D2E/DX2                !
 ! D139  D(67,30,63,65)        -57.9251         estimate D2E/DX2                !
 ! D140  D(67,30,63,66)         61.9597         estimate D2E/DX2                !
 ! D141  D(25,30,67,68)        -61.4149         estimate D2E/DX2                !
 ! D142  D(25,30,67,69)         59.6121         estimate D2E/DX2                !
 ! D143  D(25,30,67,70)        179.0619         estimate D2E/DX2                !
 ! D144  D(59,30,67,68)         59.2452         estimate D2E/DX2                !
 ! D145  D(59,30,67,69)       -179.7278         estimate D2E/DX2                !
 ! D146  D(59,30,67,70)        -60.278          estimate D2E/DX2                !
 ! D147  D(63,30,67,68)        177.6408         estimate D2E/DX2                !
 ! D148  D(63,30,67,69)        -61.3322         estimate D2E/DX2                !
 ! D149  D(63,30,67,70)         58.1176         estimate D2E/DX2                !
 ! D150  D(27,31,71,72)         59.1216         estimate D2E/DX2                !
 ! D151  D(27,31,71,73)        179.4261         estimate D2E/DX2                !
 ! D152  D(27,31,71,74)        -61.4832         estimate D2E/DX2                !
 ! D153  D(75,31,71,72)        -62.2413         estimate D2E/DX2                !
 ! D154  D(75,31,71,73)         58.0632         estimate D2E/DX2                !
 ! D155  D(75,31,71,74)        177.1539         estimate D2E/DX2                !
 ! D156  D(79,31,71,72)       -178.9308         estimate D2E/DX2                !
 ! D157  D(79,31,71,73)        -58.6264         estimate D2E/DX2                !
 ! D158  D(79,31,71,74)         60.4644         estimate D2E/DX2                !
 ! D159  D(27,31,75,76)        179.9312         estimate D2E/DX2                !
 ! D160  D(27,31,75,77)        -59.7142         estimate D2E/DX2                !
 ! D161  D(27,31,75,78)         61.0993         estimate D2E/DX2                !
 ! D162  D(71,31,75,76)        -59.1385         estimate D2E/DX2                !
 ! D163  D(71,31,75,77)         61.2161         estimate D2E/DX2                !
 ! D164  D(71,31,75,78)       -177.9704         estimate D2E/DX2                !
 ! D165  D(79,31,75,76)         57.8395         estimate D2E/DX2                !
 ! D166  D(79,31,75,77)        178.1941         estimate D2E/DX2                !
 ! D167  D(79,31,75,78)        -60.9924         estimate D2E/DX2                !
 ! D168  D(27,31,79,80)        -60.7832         estimate D2E/DX2                !
 ! D169  D(27,31,79,81)         60.8381         estimate D2E/DX2                !
 ! D170  D(27,31,79,82)        179.9677         estimate D2E/DX2                !
 ! D171  D(71,31,79,80)        178.7097         estimate D2E/DX2                !
 ! D172  D(71,31,79,81)        -59.669          estimate D2E/DX2                !
 ! D173  D(71,31,79,82)         59.4606         estimate D2E/DX2                !
 ! D174  D(75,31,79,80)         60.3137         estimate D2E/DX2                !
 ! D175  D(75,31,79,81)       -178.065          estimate D2E/DX2                !
 ! D176  D(75,31,79,82)        -58.9355         estimate D2E/DX2                !
 ! D177  D(6,39,41,42)         179.9075         estimate D2E/DX2                !
 ! D178  D(40,39,41,42)          0.0705         estimate D2E/DX2                !
 ! D179  D(39,41,42,43)        -62.433          estimate D2E/DX2                !
 ! D180  D(39,41,42,44)         62.9783         estimate D2E/DX2                !
 ! D181  D(39,41,42,45)       -179.7349         estimate D2E/DX2                !
 ! D182  D(41,42,43,46)       -178.1135         estimate D2E/DX2                !
 ! D183  D(41,42,43,47)         61.2695         estimate D2E/DX2                !
 ! D184  D(41,42,43,48)        -55.3627         estimate D2E/DX2                !
 ! D185  D(44,42,43,46)         55.566          estimate D2E/DX2                !
 ! D186  D(44,42,43,47)        -65.0509         estimate D2E/DX2                !
 ! D187  D(44,42,43,48)        178.3168         estimate D2E/DX2                !
 ! D188  D(45,42,43,46)        -61.6334         estimate D2E/DX2                !
 ! D189  D(45,42,43,47)        177.7497         estimate D2E/DX2                !
 ! D190  D(45,42,43,48)         61.1174         estimate D2E/DX2                !
 ! D191  D(41,42,44,49)        178.0344         estimate D2E/DX2                !
 ! D192  D(41,42,44,50)        -61.4108         estimate D2E/DX2                !
 ! D193  D(41,42,44,51)         55.294          estimate D2E/DX2                !
 ! D194  D(43,42,44,49)        -55.686          estimate D2E/DX2                !
 ! D195  D(43,42,44,50)         64.8688         estimate D2E/DX2                !
 ! D196  D(43,42,44,51)       -178.4265         estimate D2E/DX2                !
 ! D197  D(45,42,44,49)         61.5412         estimate D2E/DX2                !
 ! D198  D(45,42,44,50)       -177.904          estimate D2E/DX2                !
 ! D199  D(45,42,44,51)        -61.1993         estimate D2E/DX2                !
 ! D200  D(42,43,46,52)        -55.8152         estimate D2E/DX2                !
 ! D201  D(42,43,46,53)       -178.5881         estimate D2E/DX2                !
 ! D202  D(42,43,46,54)         64.7165         estimate D2E/DX2                !
 ! D203  D(47,43,46,52)         64.3545         estimate D2E/DX2                !
 ! D204  D(47,43,46,53)        -58.4184         estimate D2E/DX2                !
 ! D205  D(47,43,46,54)       -175.1138         estimate D2E/DX2                !
 ! D206  D(48,43,46,52)       -177.7859         estimate D2E/DX2                !
 ! D207  D(48,43,46,53)         59.4411         estimate D2E/DX2                !
 ! D208  D(48,43,46,54)        -57.2542         estimate D2E/DX2                !
 ! D209  D(42,44,49,52)         55.9711         estimate D2E/DX2                !
 ! D210  D(42,44,49,55)        178.7444         estimate D2E/DX2                !
 ! D211  D(42,44,49,56)        -64.5479         estimate D2E/DX2                !
 ! D212  D(50,44,49,52)        -64.2484         estimate D2E/DX2                !
 ! D213  D(50,44,49,55)         58.5249         estimate D2E/DX2                !
 ! D214  D(50,44,49,56)        175.2327         estimate D2E/DX2                !
 ! D215  D(51,44,49,52)        177.9667         estimate D2E/DX2                !
 ! D216  D(51,44,49,55)        -59.26           estimate D2E/DX2                !
 ! D217  D(51,44,49,56)         57.4477         estimate D2E/DX2                !
 ! D218  D(43,46,52,49)         55.5947         estimate D2E/DX2                !
 ! D219  D(43,46,52,57)        178.1622         estimate D2E/DX2                !
 ! D220  D(43,46,52,58)        -64.7032         estimate D2E/DX2                !
 ! D221  D(53,46,52,49)        177.8977         estimate D2E/DX2                !
 ! D222  D(53,46,52,57)        -59.5348         estimate D2E/DX2                !
 ! D223  D(53,46,52,58)         57.5998         estimate D2E/DX2                !
 ! D224  D(54,46,52,49)        -65.0113         estimate D2E/DX2                !
 ! D225  D(54,46,52,57)         57.5562         estimate D2E/DX2                !
 ! D226  D(54,46,52,58)        174.6908         estimate D2E/DX2                !
 ! D227  D(44,49,52,46)        -55.6252         estimate D2E/DX2                !
 ! D228  D(44,49,52,57)       -178.1804         estimate D2E/DX2                !
 ! D229  D(44,49,52,58)         64.639          estimate D2E/DX2                !
 ! D230  D(55,49,52,46)       -177.9492         estimate D2E/DX2                !
 ! D231  D(55,49,52,57)         59.4957         estimate D2E/DX2                !
 ! D232  D(55,49,52,58)        -57.685          estimate D2E/DX2                !
 ! D233  D(56,49,52,46)         64.9284         estimate D2E/DX2                !
 ! D234  D(56,49,52,57)        -57.6268         estimate D2E/DX2                !
 ! D235  D(56,49,52,58)       -174.8075         estimate D2E/DX2                !
 --------------------------------------------------------------------------------
 Trust Radius=3.00D-01 FncErr=1.00D-07 GrdErr=1.00D-07 EigMax=2.50D+02 EigMin=1.00D-04
 Number of steps in this run=    489 maximum allowed number of steps=    492.
 GradGradGradGradGradGradGradGradGradGradGradGradGradGradGradGradGradGrad

 Leave Link  103 at Fri Dec 21 18:12:45 2018, MaxMem=  1342177280 cpu:               0.6 elap:               0.1
 (Enter /gpfs/apps/hpc/Apps/Restricted/Gaussian/Rev_A.03/g16/l202.exe)
 Symmetry turned off by external request.
 Stoichiometry    C35H41N5O
 Framework group  C1[X(C35H41N5O)]
 Deg. of freedom   240
 Full point group                 C1      NOp   1
                          Input orientation:                          
 ---------------------------------------------------------------------
 Center     Atomic      Atomic             Coordinates (Angstroms)
 Number     Number       Type             X           Y           Z
 ---------------------------------------------------------------------
      1          6           0        1.579646    1.136284   -0.019745
      2          6           0        0.355893    1.840489   -0.092226
      3          6           0        0.362978    3.230381   -0.262889
      4          6           0        1.597756    3.869434   -0.363470
      5          6           0        2.804621    3.153702   -0.289169
      6          6           0        2.830903    1.763921   -0.117108
      7          6           0       -0.137715   -0.252300    0.152837
      8          1           0       -0.566227    3.784842   -0.318110
      9          1           0        1.632829    4.944331   -0.496917
     10          1           0        3.746349    3.685758   -0.369261
     11          6           0       -2.294973   -1.447086    0.243218
     12          6           0       -3.099072   -2.606364    0.320701
     13          6           0       -2.500455   -3.862028    0.462987
     14          6           0       -1.107351   -3.913422    0.519312
     15          6           0       -0.317965   -2.756965    0.426261
     16          6           0       -0.893110   -1.486640    0.282551
     17          6           0       -4.442588   -0.903056    0.118962
     18          1           0       -3.101625   -4.760623    0.526456
     19          1           0       -0.615908   -4.872186    0.634263
     20          1           0        0.760516   -2.852417    0.470382
     21          7           0       -0.698828    0.948693    0.021320
     22          6           0       -6.907407   -0.758504   -0.129589
     23          6           0       -5.652859   -0.106102   -0.004073
     24          6           0       -5.591059    1.295062    0.000445
     25          6           0       -6.737564    2.072803   -0.112340
     26          6           0       -7.960695    1.398395   -0.249255
     27          6           0       -8.087971    0.006995   -0.264163
     28          1           0       -4.626123    1.777567    0.105101
     29          1           0       -8.860185    1.987260   -0.342553
     30          6           0       -6.632765    3.602781   -0.094821
     31          6           0       -9.460204   -0.665236   -0.425656
     32          8           0       -6.985743   -2.108799   -0.127919
     33          1           0       -6.064722   -2.472012    0.014244
     34          7           0       -3.168783   -0.393205    0.121262
     35          7           0       -4.431224   -2.233015    0.236694
     36          1           0       -2.847068    0.564431    0.031955
     37          7           0        1.235487   -0.182725    0.137535
     38          1           0        1.928737   -0.918827    0.199437
     39          6           0        4.081740    1.017629   -0.038901
     40          1           0        4.994280    1.618192   -0.124222
     41          7           0        4.104334   -0.255385    0.116217
     42          6           0        5.424452   -0.904756    0.179755
     43          6           0        6.223189   -0.728433   -1.122776
     44          6           0        6.249245   -0.433770    1.389520
     45          1           0        5.232464   -1.976407    0.307943
     46          6           0        7.572009   -1.451524   -1.048620
     47          1           0        6.391038    0.342368   -1.290540
     48          1           0        5.631004   -1.096572   -1.965785
     49          6           0        7.597186   -1.159373    1.459603
     50          1           0        6.421442    0.645534    1.301154
     51          1           0        5.674858   -0.593491    2.306775
     52          6           0        8.390516   -0.984866    0.160142
     53          1           0        8.129706   -1.289658   -1.976028
     54          1           0        7.398311   -2.532068   -0.968534
     55          1           0        8.172723   -0.790951    2.314312
     56          1           0        7.422579   -2.228855    1.633580
     57          1           0        9.334991   -1.535121    0.214542
     58          1           0        8.645678    0.075026    0.033517
     59          6           0       -5.823565    4.067776   -1.322262
     60          1           0       -5.708832    5.155979   -1.312118
     61          1           0       -4.825860    3.621147   -1.327972
     62          1           0       -6.328601    3.784734   -2.249842
     63          6           0       -5.907264    4.056108    1.187732
     64          1           0       -4.898761    3.639775    1.244164
     65          1           0       -5.821367    5.146489    1.207647
     66          1           0       -6.455869    3.738729    2.078624
     67          6           0       -8.012688    4.273603   -0.131216
     68          1           0       -8.559145    4.020360   -1.043486
     69          1           0       -8.621763    3.975402    0.726470
     70          1           0       -7.892483    5.359255   -0.100500
     71          6           0       -9.472073   -1.512027   -1.715444
     72          1           0       -8.697785   -2.278585   -1.692806
     73          1           0      -10.443817   -2.001634   -1.830641
     74          1           0       -9.306983   -0.876791   -2.590095
     75          6           0       -9.764863   -1.560093    0.795199
     76          1           0      -10.744141   -2.031779    0.669086
     77          1           0       -9.015180   -2.340198    0.915013
     78          1           0       -9.793595   -0.960055    1.708980
     79          6           0      -10.594370    0.366618   -0.531112
     80          1           0      -10.658891    0.990042    0.364579
     81          1           0      -10.472351    1.023477   -1.396497
     82          1           0      -11.544965   -0.160808   -0.644661
 ---------------------------------------------------------------------
 Rotational constants (GHZ):           0.1788378           0.0304989           0.0266915
 Leave Link  202 at Fri Dec 21 18:12:45 2018, MaxMem=  1342177280 cpu:               0.6 elap:               0.1
 (Enter /gpfs/apps/hpc/Apps/Restricted/Gaussian/Rev_A.03/g16/l716.exe)
 Electric field and nuclear coordinate derivatives read from checkpoint file.
 Dipole        = 3.21432400D+00 1.09350769D+00-1.22514789D-02
 Polarizability= 8.13896799D+02-1.82520113D+01 7.41640458D+02
                 1.82269054D+01-3.81803373D+01 3.06722286D+02
 Full mass-weighted force constant matrix:
 Low frequencies ---   -5.2884   -0.0034   -0.0006    0.0037    3.4900    8.5408
 Low frequencies ---   13.3459   18.5398   29.1508
 Diagonal vibrational polarizability:
       85.2449821      34.0929763     118.3004371
 Harmonic frequencies (cm**-1), IR intensities (KM/Mole), Raman scattering
 activities (A**4/AMU), depolarization ratios for plane and unpolarized
 incident light, reduced masses (AMU), force constants (mDyne/A),
 and normal coordinates:
                      1                      2                      3
                      A                      A                      A
 Frequencies --      9.9631                17.9043                29.0421
 Red. masses --      4.7261                 5.0861                 5.0571
 Frc consts  --      0.0003                 0.0010                 0.0025
 IR Inten    --      0.1608                 0.1466                 0.2027
  Atom  AN      X      Y      Z        X      Y      Z        X      Y      Z
     1   6    -0.00  -0.00  -0.02    -0.02   0.00   0.10    -0.05  -0.05  -0.03
     2   6    -0.00  -0.01  -0.05    -0.02  -0.00   0.15    -0.07  -0.07  -0.02
     3   6    -0.00  -0.01  -0.05    -0.03   0.00   0.19    -0.10  -0.07  -0.02
     4   6    -0.00  -0.00  -0.02    -0.04   0.01   0.18    -0.12  -0.04  -0.05
     5   6    -0.00   0.00   0.02    -0.03   0.01   0.13    -0.10  -0.02  -0.06
     6   6    -0.00   0.00   0.01    -0.02   0.01   0.09    -0.07  -0.02  -0.05
     7   6     0.00  -0.01  -0.07    -0.01  -0.01   0.08    -0.03  -0.08   0.01
     8   1    -0.00  -0.01  -0.07    -0.04  -0.00   0.22    -0.11  -0.09  -0.01
     9   1    -0.00   0.00  -0.01    -0.05   0.01   0.21    -0.14  -0.04  -0.05
    10   1    -0.00   0.01   0.04    -0.04   0.02   0.12    -0.11  -0.00  -0.08
    11   6     0.00  -0.01  -0.10    -0.00  -0.02   0.01    -0.01  -0.08   0.02
    12   6     0.00  -0.01  -0.11    -0.00  -0.02  -0.02    -0.02  -0.07   0.02
    13   6     0.00  -0.02  -0.12    -0.00  -0.02  -0.02    -0.03  -0.07   0.02
    14   6     0.00  -0.01  -0.11    -0.01  -0.02   0.00    -0.03  -0.08   0.02
    15   6     0.00  -0.01  -0.10    -0.00  -0.02   0.04    -0.02  -0.08   0.02
    16   6     0.00  -0.01  -0.09    -0.00  -0.02   0.04    -0.01  -0.08   0.02
    17   6     0.00  -0.01  -0.09     0.00  -0.02  -0.02    -0.00  -0.06   0.02
    18   1     0.01  -0.02  -0.13    -0.00  -0.03  -0.05    -0.03  -0.07   0.03
    19   1     0.00  -0.01  -0.12    -0.01  -0.03   0.00    -0.03  -0.08   0.03
    20   1     0.00  -0.01  -0.09    -0.00  -0.02   0.06    -0.02  -0.09   0.02
    21   7    -0.00  -0.01  -0.08    -0.01  -0.01   0.13    -0.05  -0.09   0.01
    22   6    -0.01  -0.00  -0.01     0.00  -0.00  -0.01    -0.00   0.01  -0.00
    23   6     0.00  -0.01  -0.06     0.01  -0.01  -0.03     0.01  -0.03   0.01
    24   6     0.01  -0.01  -0.06     0.02  -0.01  -0.07     0.05  -0.03   0.02
    25   6     0.01  -0.00  -0.02     0.03  -0.00  -0.08     0.08   0.00   0.02
    26   6     0.00   0.00   0.03     0.02   0.01  -0.05     0.06   0.04   0.01
    27   6    -0.01   0.00   0.05     0.01   0.01  -0.01     0.02   0.04  -0.01
    28   1     0.02  -0.01  -0.10     0.03  -0.02  -0.08     0.06  -0.06   0.03
    29   1     0.00   0.01   0.07     0.03   0.01  -0.06     0.07   0.06   0.01
    30   6     0.02  -0.00  -0.03     0.04  -0.00  -0.13     0.12  -0.00   0.03
    31   6    -0.02   0.01   0.14    -0.00   0.02   0.04     0.01   0.08  -0.03
    32   8    -0.01  -0.00  -0.00    -0.01  -0.00   0.01    -0.03   0.01  -0.01
    33   1    -0.01  -0.01  -0.04    -0.01  -0.01  -0.01    -0.04  -0.02  -0.01
    34   7     0.00  -0.01  -0.09     0.00  -0.02   0.01    -0.00  -0.07   0.02
    35   7     0.00  -0.01  -0.10    -0.00  -0.02  -0.04    -0.02  -0.06   0.02
    36   1     0.00  -0.01  -0.08     0.01  -0.02   0.03     0.02  -0.08   0.02
    37   7     0.00  -0.00  -0.04    -0.01  -0.01   0.06    -0.03  -0.05  -0.01
    38   1     0.00  -0.00  -0.02    -0.00  -0.01   0.02    -0.02  -0.04  -0.01
    39   6     0.00   0.01   0.04    -0.02   0.01   0.05    -0.05   0.02  -0.05
    40   1     0.00   0.01   0.06    -0.02   0.02   0.05    -0.07   0.04  -0.06
    41   7     0.00   0.01   0.04    -0.01   0.01   0.01    -0.01   0.02  -0.03
    42   6     0.00   0.01   0.07    -0.01   0.01  -0.04     0.01   0.06  -0.01
    43   6     0.02   0.01   0.08    -0.05   0.03  -0.06     0.02   0.08   0.00
    44   6    -0.02   0.02   0.08     0.03  -0.00  -0.06    -0.03   0.09   0.00
    45   1     0.00   0.01   0.07     0.00   0.01  -0.05     0.04   0.06  -0.01
    46   6     0.02   0.01   0.10    -0.04   0.04  -0.12     0.04   0.11   0.03
    47   1     0.03   0.01   0.08    -0.07   0.03  -0.05     0.01   0.09   0.00
    48   1     0.03   0.01   0.07    -0.07   0.04  -0.05     0.04   0.07  -0.01
    49   6    -0.02   0.02   0.10     0.04   0.00  -0.11    -0.01   0.12   0.03
    50   1    -0.02   0.02   0.08     0.03  -0.00  -0.05    -0.05   0.10   0.00
    51   1    -0.03   0.02   0.07     0.06  -0.02  -0.05    -0.04   0.08  -0.01
    52   6     0.00   0.02   0.11    -0.00   0.02  -0.14     0.01   0.13   0.04
    53   1     0.04   0.01   0.11    -0.07   0.06  -0.13     0.05   0.12   0.03
    54   1     0.02   0.01   0.10    -0.03   0.04  -0.13     0.06   0.11   0.03
    55   1    -0.03   0.02   0.11     0.06  -0.00  -0.13    -0.03   0.14   0.03
    56   1    -0.02   0.02   0.10     0.05  -0.00  -0.12     0.01   0.12   0.03
    57   1     0.00   0.02   0.13    -0.00   0.03  -0.18     0.02   0.16   0.06
    58   1     0.00   0.02   0.12    -0.01   0.03  -0.13    -0.02   0.14   0.04
    59   6     0.00  -0.01  -0.04     0.06  -0.04  -0.13     0.10  -0.02   0.01
    60   1     0.00  -0.01  -0.05     0.07  -0.04  -0.16     0.12  -0.02  -0.00
    61   1    -0.00  -0.01  -0.06     0.06  -0.05  -0.10     0.09  -0.04  -0.02
    62   1    -0.01  -0.01  -0.04     0.07  -0.06  -0.13     0.07  -0.02   0.02
    63   6     0.04  -0.01  -0.04     0.04   0.03  -0.13     0.17  -0.02   0.01
    64   1     0.04  -0.02  -0.06     0.04   0.03  -0.12     0.17  -0.04  -0.03
    65   1     0.06  -0.01  -0.05     0.04   0.03  -0.16     0.20  -0.02   0.01
    66   1     0.06   0.00  -0.03     0.03   0.05  -0.13     0.20  -0.01   0.02
    67   6     0.02   0.00  -0.01     0.05   0.01  -0.16     0.14   0.04   0.08
    68   1     0.01   0.00   0.00     0.06  -0.02  -0.16     0.11   0.06   0.09
    69   1     0.03   0.01   0.00     0.04   0.04  -0.16     0.16   0.04   0.09
    70   1     0.03   0.00  -0.02     0.06   0.01  -0.20     0.17   0.03   0.08
    71   6    -0.12  -0.00   0.15    -0.06  -0.01   0.06     0.00   0.10  -0.05
    72   1    -0.14  -0.01   0.12    -0.07  -0.02   0.06    -0.02   0.08  -0.05
    73   1    -0.14   0.01   0.23    -0.07  -0.00   0.11    -0.01   0.13  -0.07
    74   1    -0.17  -0.02   0.13    -0.08  -0.04   0.04     0.03   0.11  -0.03
    75   6     0.05   0.03   0.17     0.03   0.04   0.07    -0.03   0.07  -0.05
    76   1     0.03   0.05   0.25     0.02   0.06   0.12    -0.04   0.09  -0.07
    77   1     0.04   0.02   0.12     0.02   0.04   0.06    -0.05   0.05  -0.05
    78   1     0.12   0.04   0.17     0.07   0.06   0.06    -0.04   0.05  -0.04
    79   6    -0.02   0.03   0.21     0.00   0.03   0.06     0.03   0.11  -0.03
    80   1     0.06   0.05   0.20     0.05   0.06   0.04     0.04   0.10  -0.02
    81   1    -0.08   0.00   0.18    -0.03  -0.01   0.03     0.06   0.12  -0.01
    82   1    -0.04   0.03   0.30    -0.01   0.03   0.12     0.02   0.13  -0.04
                      4                      5                      6
                      A                      A                      A
 Frequencies --     44.5613                44.8403                48.3895
 Red. masses --      4.4451                 3.0966                 5.2144
 Frc consts  --      0.0052                 0.0037                 0.0072
 IR Inten    --      0.7467                 0.0538                 0.3600
  Atom  AN      X      Y      Z        X      Y      Z        X      Y      Z
     1   6    -0.01   0.03  -0.04     0.00   0.00   0.03     0.03  -0.08  -0.00
     2   6    -0.02   0.03   0.02     0.01   0.00  -0.02     0.04  -0.06  -0.01
     3   6    -0.03   0.04   0.09     0.01  -0.00  -0.05     0.05  -0.06   0.01
     4   6    -0.03   0.05   0.09     0.01  -0.00  -0.02     0.05  -0.06   0.05
     5   6    -0.02   0.05   0.03     0.01  -0.00   0.03     0.04  -0.08   0.06
     6   6    -0.02   0.04  -0.03     0.01   0.00   0.06     0.03  -0.08   0.04
     7   6     0.00   0.02  -0.05     0.00   0.00   0.01    -0.00  -0.05  -0.05
     8   1    -0.03   0.04   0.13     0.01  -0.01  -0.10     0.05  -0.05   0.00
     9   1    -0.04   0.05   0.13     0.02  -0.01  -0.04     0.07  -0.06   0.07
    10   1    -0.03   0.06   0.04     0.01  -0.00   0.05     0.05  -0.08   0.10
    11   6     0.02  -0.00  -0.01    -0.00   0.00  -0.01    -0.04  -0.00  -0.01
    12   6     0.02  -0.00   0.00    -0.00   0.00  -0.01    -0.05   0.01   0.00
    13   6     0.04  -0.01  -0.06     0.00   0.01   0.01    -0.08  -0.01  -0.04
    14   6     0.04  -0.00  -0.13    -0.00   0.01   0.04    -0.07  -0.04  -0.10
    15   6     0.03   0.00  -0.14    -0.00   0.01   0.03    -0.06  -0.05  -0.10
    16   6     0.02   0.00  -0.07    -0.00   0.01   0.01    -0.03  -0.04  -0.06
    17   6     0.01  -0.00   0.08    -0.00  -0.00  -0.03    -0.04   0.03   0.06
    18   1     0.04  -0.01  -0.05     0.00   0.01   0.02    -0.09   0.01  -0.03
    19   1     0.05  -0.00  -0.18    -0.00   0.01   0.06    -0.09  -0.05  -0.13
    20   1     0.03   0.01  -0.19    -0.00   0.01   0.05    -0.06  -0.07  -0.14
    21   7    -0.01   0.02   0.01     0.00   0.00  -0.04     0.02  -0.04  -0.04
    22   6     0.01  -0.00   0.10    -0.00  -0.00  -0.02    -0.04   0.03   0.08
    23   6     0.01  -0.00   0.10    -0.00  -0.00  -0.02    -0.04   0.03   0.07
    24   6     0.02  -0.00   0.07    -0.00  -0.00  -0.01    -0.05   0.03   0.04
    25   6     0.02  -0.00   0.03    -0.01  -0.00   0.02    -0.05   0.03   0.01
    26   6     0.02  -0.01   0.02    -0.01  -0.00   0.02    -0.05   0.02   0.01
    27   6     0.02  -0.01   0.05    -0.00  -0.00  -0.00    -0.04   0.02   0.04
    28   1     0.02  -0.00   0.06    -0.00  -0.00  -0.02    -0.05   0.04   0.03
    29   1     0.02  -0.01  -0.02    -0.01  -0.00   0.04    -0.05   0.01  -0.03
    30   6     0.02  -0.00  -0.04    -0.01  -0.00   0.01    -0.07   0.03  -0.03
    31   6     0.03  -0.01  -0.01    -0.00  -0.00  -0.01    -0.03   0.00  -0.00
    32   8     0.01  -0.00   0.14     0.00  -0.00  -0.03    -0.04   0.03   0.12
    33   1     0.02  -0.00   0.12     0.00  -0.00  -0.03    -0.04   0.03   0.11
    34   7     0.01   0.00   0.05    -0.00   0.00  -0.02    -0.03   0.01   0.03
    35   7     0.02  -0.00   0.06     0.00   0.00  -0.02    -0.05   0.03   0.05
    36   1     0.01   0.00   0.06    -0.00   0.00  -0.03    -0.02   0.01   0.02
    37   7     0.00   0.02  -0.09     0.00   0.01   0.05     0.00  -0.07  -0.03
    38   1     0.01   0.03  -0.13    -0.00   0.01   0.08    -0.02  -0.09  -0.02
    39   6    -0.02   0.03  -0.04     0.01   0.00   0.07     0.04  -0.06   0.04
    40   1    -0.01   0.02  -0.01     0.01  -0.00   0.06     0.03  -0.03   0.07
    41   7    -0.04   0.03  -0.07     0.00   0.00   0.08     0.08  -0.06   0.02
    42   6    -0.06  -0.00  -0.04     0.00  -0.00   0.05     0.12  -0.00   0.01
    43   6    -0.01  -0.01  -0.00    -0.05  -0.02   0.01     0.11   0.06   0.01
    44   6    -0.10  -0.03   0.00     0.05   0.01   0.01     0.10   0.01   0.01
    45   1    -0.09  -0.00  -0.06     0.00  -0.00   0.06     0.16  -0.01  -0.01
    46   6    -0.03  -0.04   0.04    -0.04  -0.01  -0.03     0.14   0.12  -0.02
    47   1     0.02  -0.01   0.01    -0.06  -0.02   0.00     0.06   0.07   0.03
    48   1     0.02   0.02  -0.03    -0.08  -0.02   0.04     0.12   0.05   0.00
    49   6    -0.12  -0.06   0.05     0.06   0.00  -0.04     0.14   0.07  -0.01
    50   1    -0.07  -0.04   0.02     0.05   0.00  -0.00     0.05   0.02   0.04
    51   1    -0.14  -0.03  -0.02     0.09   0.01   0.03     0.12  -0.04   0.01
    52   6    -0.06  -0.07   0.08     0.00  -0.01  -0.07     0.12   0.13  -0.01
    53   1     0.01  -0.05   0.07    -0.08  -0.01  -0.06     0.13   0.17  -0.02
    54   1    -0.06  -0.03   0.03    -0.04  -0.01  -0.02     0.19   0.11  -0.04
    55   1    -0.14  -0.08   0.07     0.09   0.01  -0.06     0.12   0.08  -0.01
    56   1    -0.15  -0.06   0.03     0.06   0.01  -0.02     0.18   0.06  -0.03
    57   1    -0.08  -0.09   0.11     0.01  -0.01  -0.10     0.15   0.18  -0.02
    58   1    -0.03  -0.07   0.10    -0.00  -0.01  -0.09     0.07   0.15   0.01
    59   6    -0.05  -0.06  -0.11    -0.19  -0.01  -0.11    -0.08   0.00  -0.05
    60   1    -0.05  -0.06  -0.18    -0.21  -0.01  -0.16    -0.08   0.00  -0.08
    61   1    -0.05  -0.06  -0.14    -0.18   0.01  -0.22    -0.07   0.01  -0.04
    62   1    -0.10  -0.11  -0.07    -0.30  -0.05  -0.04    -0.08  -0.02  -0.04
    63   6     0.11   0.07  -0.11     0.17   0.02  -0.10    -0.07   0.07  -0.05
    64   1     0.12   0.08  -0.16     0.18   0.03  -0.23    -0.06   0.09  -0.04
    65   1     0.11   0.07  -0.18     0.18   0.02  -0.14    -0.08   0.07  -0.08
    66   1     0.18   0.11  -0.06     0.29   0.05  -0.02    -0.06   0.09  -0.04
    67   6     0.02  -0.00   0.02    -0.02  -0.01   0.20    -0.07   0.01  -0.05
    68   1    -0.03  -0.04   0.06    -0.14   0.01   0.27    -0.07  -0.02  -0.04
    69   1     0.08   0.03   0.07     0.09  -0.03   0.28    -0.07   0.03  -0.04
    70   1     0.03  -0.00  -0.03    -0.02  -0.01   0.21    -0.08   0.02  -0.08
    71   6     0.11  -0.03   0.00     0.00   0.01  -0.02     0.03  -0.02   0.01
    72   1     0.12  -0.02   0.05     0.00   0.02  -0.03     0.04  -0.01   0.05
    73   1     0.12  -0.04  -0.05     0.00   0.01  -0.03     0.04  -0.03  -0.02
    74   1     0.15  -0.03   0.00     0.00   0.03  -0.02     0.06  -0.03   0.01
    75   6    -0.03  -0.00  -0.01    -0.00  -0.02  -0.02    -0.08   0.02  -0.00
    76   1    -0.02  -0.01  -0.07    -0.00  -0.02  -0.03    -0.07   0.01  -0.04
    77   1    -0.03   0.01   0.04    -0.00  -0.02  -0.03    -0.07   0.03   0.04
    78   1    -0.09   0.01  -0.02    -0.01  -0.03  -0.02    -0.12   0.04  -0.01
    79   6     0.03  -0.02  -0.09    -0.01  -0.00  -0.00    -0.03  -0.01  -0.07
    80   1    -0.03  -0.01  -0.10    -0.02  -0.02   0.01    -0.08   0.01  -0.09
    81   1     0.08  -0.03  -0.08    -0.00   0.01   0.01     0.01  -0.02  -0.08
    82   1     0.04  -0.02  -0.14    -0.00  -0.01  -0.02    -0.02  -0.01  -0.11
                      7                      8                      9
                      A                      A                      A
 Frequencies --     52.1237                71.3821                73.3758
 Red. masses --      4.6914                 3.6658                 3.3340
 Frc consts  --      0.0075                 0.0110                 0.0106
 IR Inten    --      0.0940                 0.4560                 0.2836
  Atom  AN      X      Y      Z        X      Y      Z        X      Y      Z
     1   6     0.02  -0.02  -0.01    -0.00   0.00  -0.03     0.00   0.00  -0.02
     2   6     0.02  -0.00   0.10     0.00   0.00  -0.04     0.00   0.00  -0.05
     3   6     0.02   0.00   0.12     0.00   0.01   0.01     0.01   0.01  -0.02
     4   6     0.02  -0.01   0.02     0.01   0.02   0.09     0.01   0.01   0.05
     5   6     0.02  -0.03  -0.09     0.01   0.02   0.10     0.01   0.01   0.07
[...]
 --------------------------------------------------------------------------------
 ! R19   R(12,13)                0.0283                  1.3                    !
 ! R21   R(13,14)                0.0584                  2.6                    !
 ! R22   R(13,18)               -0.6388                 28.4                    !
 ! R23   R(14,15)                0.05                    2.2                    !
 ! R24   R(14,19)               -0.7047                 31.3                    !
 ! R25   R(15,16)                0.0211                  0.9                    !
 ! R26   R(15,20)               -0.5232                 23.2                    !
 ! A25   A(11,12,13)             0.0166                  0.7                    !
 ! A27   A(13,12,35)            -0.0181                  0.8                    !
 ! A28   A(12,13,14)            -0.0149                  0.7                    !
 ! A29   A(12,13,18)             0.018                   0.8                    !
 ! A36   A(16,15,20)             0.0177                  0.8                    !
 ! A38   A(7,16,15)             -0.015                   0.7                    !
 --------------------------------------------------------------------------------
                           ----------------------------
                           ! Normal Mode   238        !
 --------------------------                            --------------------------
 ! Name  Definition              Value          Relative Weight (%)             !
 --------------------------------------------------------------------------------
 ! R36   R(25,26)                0.0422                  2.7                    !
 ! R38   R(26,27)                0.0419                  2.7                    !
 ! R39   R(26,29)               -1.0806                 68.5                    !
 ! R47   R(32,33)                0.0101                  0.6                    !
 ! R76   R(67,68)               -0.0261                  1.7                    !
 ! R86   R(79,81)               -0.0169                  1.1                    !
 ! A53   A(24,25,26)             0.0273                  1.7                    !
 ! A55   A(26,25,30)            -0.0287                  1.8                    !
 ! A56   A(25,26,27)            -0.0563                  3.6                    !
 ! A57   A(25,26,29)             0.0264                  1.7                    !
 ! A58   A(27,26,29)             0.0299                  1.9                    !
 ! A59   A(22,27,26)             0.0276                  1.7                    !
 ! A61   A(26,27,31)            -0.0291                  1.8                    !
 --------------------------------------------------------------------------------
                           ----------------------------
                           ! Normal Mode   239        !
 --------------------------                            --------------------------
 ! Name  Definition              Value          Relative Weight (%)             !
 --------------------------------------------------------------------------------
 ! R18   R(11,34)               -0.0434                  2.9                    !
 ! R28   R(17,34)               -0.0477                  3.2                    !
 ! R48   R(34,36)                1.0704                 72.5                    !
 ! R49   R(37,38)                0.0472                  3.2                    !
 ! A23   A(12,11,34)            -0.0237                  1.6                    !
 ! A24   A(16,11,34)             0.0244                  1.7                    !
 ! A40   A(23,17,34)             0.0239                  1.6                    !
 ! A42   A(34,17,35)            -0.0231                  1.6                    !
 ! A75   A(11,34,17)             0.0474                  3.2                    !
 ! A77   A(17,34,36)            -0.0499                  3.4                    !
 --------------------------------------------------------------------------------
                           ----------------------------
                           ! Normal Mode   240        !
 --------------------------                            --------------------------
 ! Name  Definition              Value          Relative Weight (%)             !
 --------------------------------------------------------------------------------
 ! R3    R(1,37)                 0.0436                  3.0                    !
 ! R15   R(7,37)                 0.0481                  3.3                    !
 ! R48   R(34,36)                0.0472                  3.2                    !
 ! R49   R(37,38)               -1.0707                 73.3                    !
 ! A2    A(2,1,37)               0.0236                  1.6                    !
 ! A3    A(6,1,37)              -0.0245                  1.7                    !
 ! A20   A(16,7,37)             -0.0237                  1.6                    !
 ! A21   A(21,7,37)              0.0228                  1.6                    !
 ! A79   A(1,37,7)              -0.0471                  3.2                    !
 ! A81   A(7,37,38)              0.0462                  3.2                    !
 --------------------------------------------------------------------------------
 -------------------------------------------------------------------
 Center     Atomic                   Forces (Hartrees/Bohr)
 Number     Number              X              Y              Z
 -------------------------------------------------------------------
      1        6          -0.000000964    0.000004198   -0.000003773
      2        6          -0.000001037    0.000001005   -0.000007827
      3        6          -0.000003011    0.000001803   -0.000015663
      4        6          -0.000003522    0.000001693   -0.000018920
      5        6          -0.000002434    0.000003789   -0.000014732
      6        6          -0.000001566    0.000004092   -0.000006714
      7        6           0.000000037    0.000003414    0.000003654
      8        1          -0.000003378   -0.000000191   -0.000019121
      9        1          -0.000004524    0.000001054   -0.000025001
     10        1          -0.000003520    0.000003748   -0.000017312
     11        6           0.000002192    0.000000741    0.000009817
     12        6           0.000002764    0.000001481    0.000016308
     13        6           0.000003400    0.000001771    0.000023286
     14        6           0.000004551    0.000003970    0.000024123
     15        6           0.000002829    0.000004539    0.000017709
     16        6           0.000002134    0.000002674    0.000010559
     17        6           0.000000903   -0.000001006    0.000006209
     18        1           0.000005185    0.000002228    0.000028306
     19        1           0.000005013    0.000005182    0.000029570
     20        1           0.000002925    0.000005640    0.000018578
     21        7          -0.000000344    0.000001328   -0.000003085
     22        6           0.000000648   -0.000006047    0.000004633
     23        6           0.000000535   -0.000003580    0.000001611
     24        6          -0.000001043   -0.000003634   -0.000006528
     25        6          -0.000002399   -0.000005423   -0.000011159
     26        6          -0.000000607   -0.000006712   -0.000007714
     27        6           0.000001059   -0.000007391    0.000000400
     28        1          -0.000001313   -0.000001794   -0.000008835
     29        1          -0.000001586   -0.000008698   -0.000011136
     30        6          -0.000003042   -0.000005045   -0.000019805
     31        6           0.000000667   -0.000010036    0.000003445
     32        8           0.000002943   -0.000005051    0.000012414
     33        1           0.000002511   -0.000003782    0.000014577
     34        7           0.000000611    0.000000125    0.000003715
     35        7           0.000002596   -0.000001655    0.000013666
     36        1          -0.000000263   -0.000000537   -0.000001607
     37        7           0.000000179    0.000003731    0.000003850
     38        1           0.000001254    0.000005343    0.000008024
     39        6          -0.000000812    0.000005492   -0.000002090
     40        1          -0.000001132    0.000006544   -0.000005429
     41        7           0.000000178    0.000007759    0.000004741
     42        6           0.000001523    0.000008202    0.000009044
     43        6           0.000001659    0.000002679    0.000008502
     44        6           0.000000333    0.000015738    0.000006522
     45        1           0.000002301    0.000009333    0.000014863
     46        6           0.000001704    0.000003514    0.000012458
     47        1           0.000000284    0.000001160    0.000002123
     48        1           0.000001814   -0.000003372    0.000009735
     49        6           0.000001038    0.000017803    0.000010957
     50        1          -0.000000598    0.000016421    0.000000370
     51        1           0.000000285    0.000020841    0.000007171
     52        6           0.000000987    0.000011936    0.000010323
     53        1           0.000002247   -0.000000677    0.000011626
     54        1           0.000003150    0.000004243    0.000018583
     55        1           0.000000524    0.000023485    0.000008986
     56        1           0.000002104    0.000019004    0.000016797
     57        1           0.000002100    0.000012575    0.000013475
     58        1           0.000000252    0.000011039    0.000004310
     59        6          -0.000003585   -0.000010470   -0.000021925
     60        1          -0.000004529   -0.000011345   -0.000028187
     61        1          -0.000002718   -0.000010232   -0.000019258
     62        1          -0.000002970   -0.000016848   -0.000020735
     63        6          -0.000003549    0.000002453   -0.000021377
     64        1          -0.000004137    0.000004412   -0.000019565
     65        1          -0.000005256    0.000003350   -0.000028151
     66        1          -0.000003941    0.000007548   -0.000020678
     67        6          -0.000003940   -0.000006362   -0.000023722
     68        1          -0.000003475   -0.000012296   -0.000022677
     69        1          -0.000003976   -0.000002450   -0.000022144
     70        1          -0.000005049   -0.000006397   -0.000029920
     71        6           0.000002019   -0.000016692    0.000008126
     72        1           0.000003212   -0.000016161    0.000012853
     73        1           0.000002868   -0.000018556    0.000010901
     74        1           0.000001935   -0.000021794    0.000004891
     75        6           0.000001626   -0.000003197    0.000008127
     76        1           0.000002163   -0.000004804    0.000010891
     77        1           0.000002537   -0.000001803    0.000013108
     78        1           0.000000799    0.000002162    0.000005494
     79        6          -0.000000165   -0.000011776   -0.000002826
     80        1          -0.000000746   -0.000006313   -0.000005785
     81        1          -0.000000211   -0.000016086   -0.000006284
     82        1           0.000000763   -0.000013027    0.000000251
 -------------------------------------------------------------------
 Cartesian Forces:  Max     0.000029920 RMS     0.000009945
 FormGI is forming the generalized inverse of G from B-inverse, IUseBI=4.
 GSVD:  received Info=                   1 from GESDD.
 Leave Link  716 at Fri Dec 21 18:12:46 2018, MaxMem=  1342177280 cpu:               8.0 elap:               0.5
 (Enter /gpfs/apps/hpc/Apps/Restricted/Gaussian/Rev_A.03/g16/l9999.exe)

 ----------------------------------------------------------------------

 Electric dipole moment (input orientation):
 (Debye = 10**-18 statcoulomb cm , SI units = C m)
                  (au)            (Debye)         (10**-30 SI)
   Tot        0.339526D+01      0.862989D+01      0.287862D+02
   x          0.321432D+01      0.817000D+01      0.272522D+02
   y          0.109351D+01      0.277942D+01      0.927114D+01
   z         -0.122515D-01     -0.311402D-01     -0.103872D+00

 Dipole polarizability, Alpha (input orientation).
 (esu units = cm**3 , SI units = C**2 m**2 J**-1)
 Alpha(0;0):
               (au)            (10**-24 esu)      (10**-40 SI)
   iso        0.620753D+03      0.919861D+02      0.102348D+03
   aniso      0.481840D+03      0.714013D+02      0.794447D+02
   xx         0.813897D+03      0.120607D+03      0.134193D+03
   yx        -0.182520D+02     -0.270467D+01     -0.300935D+01
   yy         0.741640D+03      0.109900D+03      0.122280D+03
   zx         0.182269D+02      0.270095D+01      0.300521D+01
   zy        -0.381803D+02     -0.565774D+01     -0.629509D+01
   zz         0.306722D+03      0.454516D+02      0.505717D+02

 ----------------------------------------------------------------------

 Dipole orientation:
     6         -0.32177087          1.02227415          3.51772265
     6         -0.83172690          2.96627094          1.75749135
     6         -1.32880127          5.41912747          2.61724929
     6         -1.28391223          5.84821762          5.21592115
     6         -0.77375364          3.89336385          6.93891146
     6         -0.27290781          1.42054910          6.13890582
     6         -0.15368326         -0.44052624         -0.40097262
     1         -1.72710521          6.92877345          1.29271545
     1         -1.66009795          7.72895302          5.93378353
     1         -0.75929910          4.29830170          8.94805016
     6         -0.03414533         -1.27081627         -4.98814275
     6          0.34491144         -2.81563919         -7.13278360
     6          0.93016060         -5.37423937         -6.82704010
     6          1.12367717         -6.30112699         -4.36641087
     6          0.77130907         -4.74309684         -2.24970265
     6          0.18458694         -2.17238221         -2.50452153
     6         -0.53429953          0.96776217         -8.49831590
     1          1.22208037         -6.58654601         -8.44988364
     1          1.56578608         -8.27846336         -4.07151764
     1          0.95238667         -5.55520837         -0.37867215
     7         -0.71946117          1.99727418         -0.67296808
     6         -0.64131921          2.78910495        -12.81825738
     6         -1.00488743          3.09175481        -10.17763380
     6         -1.81149178          5.42543547         -9.21432371
     6         -2.27719700          7.47378789        -10.79132622
     6         -1.87454383          7.12265194        -13.38905973
     6         -1.06743232          4.84968842        -14.46349435
     1         -2.09449385          5.62062125         -7.19508302
     1         -2.21897902          8.69653489        -14.63923412
     6         -3.17338441          9.99277246         -9.67277961
     6         -0.65038334          4.60341879        -17.32648195
     8          0.12165807          0.54734160        -13.78023293
     1          0.25227279         -0.68670412        -12.35453553
     7         -0.59134095          1.09292961         -5.90916063
     7          0.02631541         -1.36208153         -9.28823071
     1         -0.92424901          2.58251992         -4.75015821
     7          0.09424264         -1.10751099          2.09816433
     1          0.54082252         -2.79229417          2.88997335
     6          0.25628563         -0.61384787          7.92193685
     1          0.23493602         -0.07286664          9.92058813
     7          0.71921904         -2.87653177          7.18651581
     6          1.23176576         -4.77797727          9.15258032
     6          3.61174594         -4.14860317         10.69773379
     6         -1.04825322         -5.19384572         10.90655585
     1          1.58568325         -6.55927645          8.15600510
     6          4.15337804         -6.19791647         12.67020677
     1          3.32453808         -2.33069724         11.65087636
     1          5.22033119         -3.91634213          9.41999303
     6         -0.49804875         -7.24442461         12.87595519
     1         -1.48159715         -3.41238194         11.87211079
     1         -2.70596079         -5.69036114          9.77550083
     6          1.87646244         -6.61686673         14.41030922
     1          5.82483955         -5.68193882         13.77277775
     1          4.60196707         -7.97557219         11.70126827
     1         -2.13089080         -7.47370029         14.12400478
     1         -0.22400223         -9.05997087         11.91148282
     1          2.27670287         -8.12772254         15.76472688
     1          1.53854598         -4.89295873         15.51273664
     6         -1.09268659         11.05911574         -7.93372748
     1         -1.71832602         12.82892013         -7.06623246
     1         -0.63472353          9.72950124         -6.42060126
     1          0.63453892         11.43652153         -9.00318822
     6         -5.59226740          9.56012504         -8.10768358
     1         -5.26094648          8.23773640         -6.55722443
     1         -6.24212306         11.34434507         -7.29051784
     1         -7.10674509          8.79783097         -9.28838843
     6         -3.75825263         11.94859835        -11.73296607
     1         -2.08351528         12.39108851        -12.85849793
     1         -5.23589805         11.27395078        -13.00995446
     1         -4.41818145         13.69839901        -10.85737440
     6          2.14449889          3.96166037        -17.85429663
     1          2.69432472          2.20234995        -16.93577736
     1          2.44917304          3.76480330        -19.88996754
     1          3.37327932          5.47397816        -17.16636426
     6         -2.37490326          2.52156501        -18.42447805
     1         -2.06249420          2.36604860        -20.46264590
     1         -1.99576620          0.69440454        -17.55888529
     1         -4.36212037          2.99789581        -18.11691481
     6         -1.27380416          7.07038807        -18.72680092
     1         -3.24897808          7.61801717        -18.46890837
     1         -0.08228443          8.63858094        -18.10282644
     1         -0.94619216          6.79627057        -20.74766453

 Electric dipole moment (dipole orientation):
 (Debye = 10**-18 statcoulomb cm , SI units = C m)
                  (au)            (Debye)         (10**-30 SI)
   Tot        0.339526D+01      0.862989D+01      0.287862D+02
   x          0.000000D+00      0.000000D+00      0.000000D+00
   y          0.000000D+00      0.000000D+00      0.000000D+00
   z          0.339526D+01      0.862989D+01      0.287862D+02

 Dipole polarizability, Alpha (dipole orientation).
 (esu units = cm**3 , SI units = C**2 m**2 J**-1)
 Alpha(0;0):
               (au)            (10**-24 esu)      (10**-40 SI)
   iso        0.620753D+03      0.919861D+02      0.102348D+03
   aniso      0.481840D+03      0.714013D+02      0.794447D+02
   xx         0.328104D+03      0.486199D+02      0.540970D+02
   yx        -0.104873D+03     -0.155406D+02     -0.172913D+02
   yy         0.738927D+03      0.109498D+03      0.121833D+03
   zx         0.534226D+01      0.791641D+00      0.880820D+00
   zy        -0.365735D+02     -0.541963D+01     -0.603015D+01
   zz         0.795229D+03      0.117841D+03      0.131116D+03

 ----------------------------------------------------------------------

 This type of calculation cannot be archived.


 KNOWLEDGE IS EXPERIMENT'S DAUGHTER.
 -- LEONARDO DA VINCI, IN "PENSIERI" CA. 1492
 Job cpu time:       0 days  0 hours  0 minutes 28.1 seconds.
 Elapsed time:       0 days  0 hours  0 minutes  1.9 seconds.
 File lengths (MBytes):  RWF=     72 Int=      0 D2E=      0 Chk=     88 Scr=      8
 Normal termination of Gaussian 16 at Fri Dec 21 18:12:46 2018.
