 Entering Gaussian System, Link 0=g16
 Initial command:
 /gpfs/apps/hpc/Apps/Restricted/Gaussian/g16/Rev_B.01-AVX/g16/l1.exe "/gpfs/scratch60/fas/hammes_schiffer/jg2487/c42n04/Gau-42428.inp" -scrdir="/gpfs/scratch60/fas/hammes_schiffer/jg2487/c42n04/"
 Entering Link 1 = /gpfs/apps/hpc/Apps/Restricted/Gaussian/g16/Rev_B.01-AVX/g16/l1.exe PID=     42429.
  
 Copyright (c) 1988-2017, Gaussian, Inc.  All Rights Reserved.
  
 This is part of the Gaussian(R) 16 program.  It is based on
 the Gaussian(R) 09 system (copyright 2009, Gaussian, Inc.),
 the Gaussian(R) 03 system (copyright 2003, Gaussian, Inc.),
 the Gaussian(R) 98 system (copyright 1998, Gaussian, Inc.),
 the Gaussian(R) 94 system (copyright 1995, Gaussian, Inc.),
 the Gaussian 92(TM) system (copyright 1992, Gaussian, Inc.),
 the Gaussian 90(TM) system (copyright 1990, Gaussian, Inc.),
 the Gaussian 88(TM) system (copyright 1988, Gaussian, Inc.),
 the Gaussian 86(TM) system (copyright 1986, Carnegie Mellon
 University), and the Gaussian 82(TM) system (copyright 1983,
 Carnegie Mellon University). Gaussian is a federally registered
 trademark of Gaussian, Inc.
  
 This software contains proprietary and confidential information,
 including trade secrets, belonging to Gaussian, Inc.
  
 This software is provided under written license and may be
 used, copied, transmitted, or stored only in accord with that
 written license.
  
 The following legend is applicable only to US Government
 contracts under FAR:
  
                    RESTRICTED RIGHTS LEGEND
  
 Use, reproduction and disclosure by the US Government is
 subject to restrictions as set forth in subparagraphs (a)
 and (c) of the Commercial Computer Software - Restricted
 Rights clause in FAR 52.227-19.
  
 Gaussian, Inc.
 340 Quinnipiac St., Bldg. 40, Wallingford CT 06492
  
  
 ---------------------------------------------------------------
 Warning -- This program may not be used in any manner that
 competes with the business of Gaussian, Inc. or will provide
 assistance to any competitor of Gaussian, Inc.  The licensee
 of this program is prohibited from giving any competitor of
 Gaussian, Inc. access to this program.  By using this program,
 the user acknowledges that Gaussian, Inc. is engaged in the
 business of creating and licensing software in the field of
 computational chemistry and represents and warrants to the
 licensee that it is not a competitor of Gaussian, Inc. and that
 it will not use this program in any manner prohibited above.
 ---------------------------------------------------------------
  

 Cite this work as:
 Gaussian 16, Revision B.01,
 M. J. Frisch, G. W. Trucks, H. B. Schlegel, G. E. Scuseria, 
 M. A. Robb, J. R. Cheeseman, G. Scalmani, V. Barone, 
 G. A. Petersson, H. Nakatsuji, X. Li, M. Caricato, A. V. Marenich, 
 J. Bloino, B. G. Janesko, R. Gomperts, B. Mennucci, H. P. Hratchian, 
 J. V. Ortiz, A. F. Izmaylov, J. L. Sonnenberg, D. Williams-Young, 
 F. Ding, F. Lipparini, F. Egidi, J. Goings, B. Peng, A. Petrone, 
 T. Henderson, D. Ranasinghe, V. G. Zakrzewski, J. Gao, N. Rega, 
 G. Zheng, W. Liang, M. Hada, M. Ehara, K. Toyota, R. Fukuda, 
 J. Hasegawa, M. Ishida, T. Nakajima, Y. Honda, O. Kitao, H. Nakai, 
 T. Vreven, K. Throssell, J. A. Montgomery, Jr., J. E. Peralta, 
 F. Ogliaro, M. J. Bearpark, J. J. Heyd, E. N. Brothers, K. N. Kudin, 
 V. N. Staroverov, T. A. Keith, R. Kobayashi, J. Normand, 
 K. Raghavachari, A. P. Rendell, J. C. Burant, S. S. Iyengar, 
 J. Tomasi, M. Cossi, J. M. Millam, M. Klene, C. Adamo, R. Cammi, 
 J. W. Ochterski, R. L. Martin, K. Morokuma, O. Farkas, 
 J. B. Foresman, and D. J. Fox, Gaussian, Inc., Wallingford CT, 2016.
 
 ******************************************
 Gaussian 16:  ES64L-G16RevB.01 20-Dec-2017
                 6-Mar-2019 
 ******************************************
 %chk=unsub-monoBIP-E1PT.chk
 %mem=10GB
 %nprocshared=16
 Will use up to   16 processors via shared memory.
 ----------------------------------------------------------------------
 #p opt=tight freq=internalmodes b3lyp/6-31g(d,p) scrf=(cpcm,solvent=di
 chloromethane,read) nosymm empiricaldispersion=gd3bj int=grid=ultrafin
 e
 ----------------------------------------------------------------------
 1/7=10,18=20,19=15,26=6,38=1,40=2/1,3;
 2/9=110,12=2,15=1,17=6,18=5,40=1/2;
 3/5=1,6=6,7=101,11=2,25=1,30=1,70=2103,71=1,72=9,74=-5,75=-5,124=41/1,2,3;
 4//1;
 5/5=2,38=5,53=9/2;
 6/7=2,8=2,9=2,10=2,28=1/1;
 7/30=1/1,2,3,16;
 1/7=10,18=20,19=15,26=6/3(2);
 2/9=110,15=1/2;
 99//99;
 2/9=110,15=1/2;
 3/5=1,6=6,7=101,11=2,25=1,30=1,70=2105,71=1,72=9,74=-5,75=-5,124=41/1,2,3;
 4/5=5,16=3,69=1/1;
 5/5=2,38=5,53=9/2;
 7/30=1/1,2,3,16;
 1/7=10,18=20,19=15,26=6/3(-5);
 2/9=110,15=1/2;
 6/7=2,8=2,9=2,10=2,19=2,28=1/1;
 99/9=1/99;
 Leave Link    1 at Wed Mar  6 12:17:29 2019, MaxMem=  1342177280 cpu:               9.2 elap:               0.7
 (Enter /gpfs/apps/hpc/Apps/Restricted/Gaussian/g16/Rev_B.01-AVX/g16/l101.exe)
 --------------------------------------
 Simple unsub-monoBIP E1PT optimization
 --------------------------------------
 Symbolic Z-matrix:
 Charge =  1 Multiplicity = 2
 C                    -0.48305   2.71558   0.41615 
 C                    -1.88105   2.89836   0.3276 
 C                    -2.41289   4.19012   0.24342 
 C                    -1.52046   5.26199   0.25628 
 C                    -0.1336    5.06453   0.35031 
 C                     0.42705   3.78269   0.4298 
 C                    -1.51854   0.75202   0.42465 
 H                    -3.48208   4.34634   0.16902 
 H                    -1.90527   6.27315   0.19413 
 H                     0.52954   5.92276   0.36062 
 N                    -2.49643   1.65628   0.3363 
 C                    -3.06367  -1.18904   0.35231 
 C                    -1.73922  -0.685     0.44727 
 C                    -0.65872  -1.57362   0.5405 
 C                    -0.84876  -2.95029   0.54136 
 C                    -2.16787  -3.41764   0.44645 
 C                    -3.28613  -2.585     0.35333 
 H                     0.34704  -1.17537   0.61268 
 H                    -2.33231  -4.48383   0.44549 
 C                     0.36142  -3.8878    0.61444 
 C                    -4.7052   -3.16741   0.25339 
 O                    -3.99645  -0.44344   0.26837 
 N                    -0.28701   1.3566    0.47644 
 H                     0.63826   0.94763   0.52815 
 C                     1.24578  -3.65452  -0.62729 
 H                     1.57556  -2.61431  -0.68351 
 H                     2.13382  -4.29238  -0.58864 
 H                     0.69738  -3.88708  -1.54418 
 C                     1.18279  -3.57555   1.88073 
 H                     0.58865  -3.74389   2.78286 
 H                     2.06432  -4.22163   1.92639 
 H                     1.5249   -2.53763   1.88737 
 C                    -0.04946  -5.36609   0.6521 
 H                    -0.66468  -5.59167   1.5274 
 H                    -0.60816  -5.65207  -0.24333 
 H                     0.84524  -5.99164   0.70128 
 C                    -5.359    -2.73216  -1.07525 
 H                    -6.37293  -3.13823  -1.13996 
 H                    -5.4137   -1.64727  -1.15536 
 H                    -4.78635  -3.11382  -1.92528 
 C                    -5.55747  -2.68255   1.44569 
 H                    -5.65813  -1.59821   1.44663 
 H                    -6.55655  -3.12577   1.39415 
 H                    -5.09796  -2.98688   2.39028 
 C                    -4.69423  -4.70466   0.28382 
 H                    -4.12605  -5.1234   -0.55106 
 H                    -4.26884  -5.08976   1.21438 
 H                    -5.72146  -5.06914   0.20754 
 H                     1.48364   3.62767   0.49675 
 H                    -3.47837   1.47384   0.2863 
 
 ITRead=  0  0  0  0  0  0  0  0  0  0  0  0  0  0  0  0  0  0  0  0
 ITRead=  0  0  0  0  0  0  0  0  0  0  0  0  0  0  0  0  0  0  0  0
 ITRead=  0  0  0  0  0  0  0  0  0  0
 MicOpt= -1 -1 -1 -1 -1 -1 -1 -1 -1 -1 -1 -1 -1 -1 -1 -1 -1 -1 -1 -1
 MicOpt= -1 -1 -1 -1 -1 -1 -1 -1 -1 -1 -1 -1 -1 -1 -1 -1 -1 -1 -1 -1
 MicOpt= -1 -1 -1 -1 -1 -1 -1 -1 -1 -1
 NAtoms=     50 NQM=       50 NQMF=       0 NMMI=      0 NMMIF=      0
                NMic=       0 NMicF=      0.
                    Isotopes and Nuclear Properties:
 (Nuclear quadrupole moments (NQMom) in fm**2, nuclear magnetic moments (NMagM)
  in nuclear magnetons)

  Atom         1           2           3           4           5           6           7           8           9          10
 IAtWgt=          12          12          12          12          12          12          12           1           1           1
 AtmWgt=  12.0000000  12.0000000  12.0000000  12.0000000  12.0000000  12.0000000  12.0000000   1.0078250   1.0078250   1.0078250
 NucSpn=           0           0           0           0           0           0           0           1           1           1
 AtZEff=  -0.0000000  -0.0000000  -0.0000000  -0.0000000  -0.0000000  -0.0000000  -0.0000000  -0.0000000  -0.0000000  -0.0000000
 NQMom=    0.0000000   0.0000000   0.0000000   0.0000000   0.0000000   0.0000000   0.0000000   0.0000000   0.0000000   0.0000000
 NMagM=    0.0000000   0.0000000   0.0000000   0.0000000   0.0000000   0.0000000   0.0000000   2.7928460   2.7928460   2.7928460
 AtZNuc=   6.0000000   6.0000000   6.0000000   6.0000000   6.0000000   6.0000000   6.0000000   1.0000000   1.0000000   1.0000000

  Atom        11          12          13          14          15          16          17          18          19          20
 IAtWgt=          14          12          12          12          12          12          12           1           1          12
 AtmWgt=  14.0030740  12.0000000  12.0000000  12.0000000  12.0000000  12.0000000  12.0000000   1.0078250   1.0078250  12.0000000
 NucSpn=           2           0           0           0           0           0           0           1           1           0
 AtZEff=  -0.0000000  -0.0000000  -0.0000000  -0.0000000  -0.0000000  -0.0000000  -0.0000000  -0.0000000  -0.0000000  -0.0000000
 NQMom=    2.0440000   0.0000000   0.0000000   0.0000000   0.0000000   0.0000000   0.0000000   0.0000000   0.0000000   0.0000000
 NMagM=    0.4037610   0.0000000   0.0000000   0.0000000   0.0000000   0.0000000   0.0000000   2.7928460   2.7928460   0.0000000
 AtZNuc=   7.0000000   6.0000000   6.0000000   6.0000000   6.0000000   6.0000000   6.0000000   1.0000000   1.0000000   6.0000000

  Atom        21          22          23          24          25          26          27          28          29          30
 IAtWgt=          12          16          14           1          12           1           1           1          12           1
 AtmWgt=  12.0000000  15.9949146  14.0030740   1.0078250  12.0000000   1.0078250   1.0078250   1.0078250  12.0000000   1.0078250
 NucSpn=           0           0           2           1           0           1           1           1           0           1
 AtZEff=  -0.0000000  -0.0000000  -0.0000000  -0.0000000  -0.0000000  -0.0000000  -0.0000000  -0.0000000  -0.0000000  -0.0000000
 NQMom=    0.0000000   0.0000000   2.0440000   0.0000000   0.0000000   0.0000000   0.0000000   0.0000000   0.0000000   0.0000000
 NMagM=    0.0000000   0.0000000   0.4037610   2.7928460   0.0000000   2.7928460   2.7928460   2.7928460   0.0000000   2.7928460
 AtZNuc=   6.0000000   8.0000000   7.0000000   1.0000000   6.0000000   1.0000000   1.0000000   1.0000000   6.0000000   1.0000000

  Atom        31          32          33          34          35          36          37          38          39          40
 IAtWgt=           1           1          12           1           1           1          12           1           1           1
 AtmWgt=   1.0078250   1.0078250  12.0000000   1.0078250   1.0078250   1.0078250  12.0000000   1.0078250   1.0078250   1.0078250
 NucSpn=           1           1           0           1           1           1           0           1           1           1
 AtZEff=  -0.0000000  -0.0000000  -0.0000000  -0.0000000  -0.0000000  -0.0000000  -0.0000000  -0.0000000  -0.0000000  -0.0000000
 NQMom=    0.0000000   0.0000000   0.0000000   0.0000000   0.0000000   0.0000000   0.0000000   0.0000000   0.0000000   0.0000000
 NMagM=    2.7928460   2.7928460   0.0000000   2.7928460   2.7928460   2.7928460   0.0000000   2.7928460   2.7928460   2.7928460
 AtZNuc=   1.0000000   1.0000000   6.0000000   1.0000000   1.0000000   1.0000000   6.0000000   1.0000000   1.0000000   1.0000000

  Atom        41          42          43          44          45          46          47          48          49          50
 IAtWgt=          12           1           1           1          12           1           1           1           1           1
 AtmWgt=  12.0000000   1.0078250   1.0078250   1.0078250  12.0000000   1.0078250   1.0078250   1.0078250   1.0078250   1.0078250
 NucSpn=           0           1           1           1           0           1           1           1           1           1
 AtZEff=  -0.0000000  -0.0000000  -0.0000000  -0.0000000  -0.0000000  -0.0000000  -0.0000000  -0.0000000  -0.0000000  -0.0000000
 NQMom=    0.0000000   0.0000000   0.0000000   0.0000000   0.0000000   0.0000000   0.0000000   0.0000000   0.0000000   0.0000000
 NMagM=    0.0000000   2.7928460   2.7928460   2.7928460   0.0000000   2.7928460   2.7928460   2.7928460   2.7928460   2.7928460
 AtZNuc=   6.0000000   1.0000000   1.0000000   1.0000000   6.0000000   1.0000000   1.0000000   1.0000000   1.0000000   1.0000000
 Leave Link  101 at Wed Mar  6 12:17:29 2019, MaxMem=  1342177280 cpu:               4.3 elap:               0.3
 (Enter /gpfs/apps/hpc/Apps/Restricted/Gaussian/g16/Rev_B.01-AVX/g16/l103.exe)

 GradGradGradGradGradGradGradGradGradGradGradGradGradGradGradGradGradGrad
 Berny optimization.
 Initialization pass.
                           ----------------------------
                           !    Initial Parameters    !
                           ! (Angstroms and Degrees)  !
 --------------------------                            --------------------------
 ! Name  Definition              Value          Derivative Info.                !
 --------------------------------------------------------------------------------
 ! R1    R(1,2)                  1.4127         estimate D2E/DX2                !
 ! R2    R(1,6)                  1.4026         estimate D2E/DX2                !
 ! R3    R(1,23)                 1.3744         estimate D2E/DX2                !
 ! R4    R(2,3)                  1.3995         estimate D2E/DX2                !
 ! R5    R(2,11)                 1.3862         estimate D2E/DX2                !
 ! R6    R(3,4)                  1.3948         estimate D2E/DX2                !
 ! R7    R(3,8)                  1.0831         estimate D2E/DX2                !
 ! R8    R(4,5)                  1.404          estimate D2E/DX2                !
 ! R9    R(4,9)                  1.0837         estimate D2E/DX2                !
 ! R10   R(5,6)                  1.4013         estimate D2E/DX2                !
 ! R11   R(5,10)                 1.0846         estimate D2E/DX2                !
 ! R12   R(6,49)                 1.07           estimate D2E/DX2                !
 ! R13   R(7,11)                 1.3348         estimate D2E/DX2                !
 ! R14   R(7,13)                 1.454          estimate D2E/DX2                !
 ! R15   R(7,23)                 1.3729         estimate D2E/DX2                !
 ! R16   R(11,50)                1.0            estimate D2E/DX2                !
 ! R17   R(12,13)                1.4203         estimate D2E/DX2                !
 ! R18   R(12,17)                1.4136         estimate D2E/DX2                !
 ! R19   R(12,22)                1.1971         estimate D2E/DX2                !
 ! R20   R(13,14)                1.4021         estimate D2E/DX2                !
 ! R21   R(14,15)                1.3897         estimate D2E/DX2                !
 ! R22   R(14,18)                1.0842         estimate D2E/DX2                !
 ! R23   R(15,16)                1.4027         estimate D2E/DX2                !
 ! R24   R(15,20)                1.5326         estimate D2E/DX2                !
 ! R25   R(16,17)                1.3973         estimate D2E/DX2                !
 ! R26   R(16,19)                1.0788         estimate D2E/DX2                !
 ! R27   R(17,21)                1.5372         estimate D2E/DX2                !
 ! R28   R(20,25)                1.5422         estimate D2E/DX2                !
 ! R29   R(20,29)                1.5413         estimate D2E/DX2                !
 ! R30   R(20,33)                1.5348         estimate D2E/DX2                !
 ! R31   R(21,37)                1.5434         estimate D2E/DX2                !
 ! R32   R(21,41)                1.5437         estimate D2E/DX2                !
 ! R33   R(21,45)                1.5376         estimate D2E/DX2                !
 ! R34   R(23,24)                1.0129         estimate D2E/DX2                !
 ! R35   R(25,26)                1.0927         estimate D2E/DX2                !
 ! R36   R(25,27)                1.0941         estimate D2E/DX2                !
 ! R37   R(25,28)                1.0934         estimate D2E/DX2                !
 ! R38   R(29,30)                1.0932         estimate D2E/DX2                !
 ! R39   R(29,31)                1.0939         estimate D2E/DX2                !
 ! R40   R(29,32)                1.0929         estimate D2E/DX2                !
 ! R41   R(33,34)                1.0934         estimate D2E/DX2                !
 ! R42   R(33,35)                1.0935         estimate D2E/DX2                !
 ! R43   R(33,36)                1.0928         estimate D2E/DX2                !
 ! R44   R(37,38)                1.0941         estimate D2E/DX2                !
 ! R45   R(37,39)                1.0892         estimate D2E/DX2                !
 ! R46   R(37,40)                1.0937         estimate D2E/DX2                !
 ! R47   R(41,42)                1.089          estimate D2E/DX2                !
 ! R48   R(41,43)                1.0942         estimate D2E/DX2                !
 ! R49   R(41,44)                1.0936         estimate D2E/DX2                !
 ! R50   R(45,46)                1.0932         estimate D2E/DX2                !
 ! R51   R(45,47)                1.0933         estimate D2E/DX2                !
 ! R52   R(45,48)                1.0926         estimate D2E/DX2                !
 ! A1    A(2,1,6)              122.9781         estimate D2E/DX2                !
 ! A2    A(2,1,23)             105.7738         estimate D2E/DX2                !
 ! A3    A(6,1,23)             131.2481         estimate D2E/DX2                !
 ! A4    A(1,2,3)              119.9516         estimate D2E/DX2                !
 ! A5    A(1,2,11)             108.8443         estimate D2E/DX2                !
 ! A6    A(3,2,11)             131.2033         estimate D2E/DX2                !
 ! A7    A(2,3,4)              117.7494         estimate D2E/DX2                !
 ! A8    A(2,3,8)              120.8241         estimate D2E/DX2                !
 ! A9    A(4,3,8)              121.4265         estimate D2E/DX2                !
 ! A10   A(3,4,5)              121.6384         estimate D2E/DX2                !
 ! A11   A(3,4,9)              119.2951         estimate D2E/DX2                !
 ! A12   A(5,4,9)              119.0664         estimate D2E/DX2                !
 ! A13   A(4,5,6)              121.8461         estimate D2E/DX2                !
 ! A14   A(4,5,10)             119.5567         estimate D2E/DX2                !
 ! A15   A(6,5,10)             118.5972         estimate D2E/DX2                !
 ! A16   A(1,6,5)              115.8354         estimate D2E/DX2                !
 ! A17   A(1,6,49)             122.0823         estimate D2E/DX2                !
 ! A18   A(5,6,49)             122.0823         estimate D2E/DX2                !
 ! A19   A(11,7,13)            124.0113         estimate D2E/DX2                !
 ! A20   A(11,7,23)            111.1816         estimate D2E/DX2                !
 ! A21   A(13,7,23)            124.8037         estimate D2E/DX2                !
 ! A22   A(2,11,7)             106.3919         estimate D2E/DX2                !
 ! A23   A(2,11,50)            126.804          estimate D2E/DX2                !
 ! A24   A(7,11,50)            126.804          estimate D2E/DX2                !
 ! A25   A(13,12,17)           119.8125         estimate D2E/DX2                !
 ! A26   A(13,12,22)           120.6822         estimate D2E/DX2                !
 ! A27   A(17,12,22)           119.5052         estimate D2E/DX2                !
 ! A28   A(7,13,12)            119.4203         estimate D2E/DX2                !
 ! A29   A(7,13,14)            120.6936         estimate D2E/DX2                !
 ! A30   A(12,13,14)           119.8785         estimate D2E/DX2                !
 ! A31   A(13,14,15)           121.5            estimate D2E/DX2                !
 ! A32   A(13,14,18)           119.1133         estimate D2E/DX2                !
 ! A33   A(15,14,18)           119.3867         estimate D2E/DX2                !
 ! A34   A(14,15,16)           117.2975         estimate D2E/DX2                !
 ! A35   A(14,15,20)           119.8696         estimate D2E/DX2                !
 ! A36   A(16,15,20)           122.8203         estimate D2E/DX2                !
 ! A37   A(15,16,17)           123.9582         estimate D2E/DX2                !
 ! A38   A(15,16,19)           118.2098         estimate D2E/DX2                !
 ! A39   A(17,16,19)           117.8321         estimate D2E/DX2                !
 ! A40   A(12,17,16)           117.5531         estimate D2E/DX2                !
 ! A41   A(12,17,21)           121.2915         estimate D2E/DX2                !
 ! A42   A(16,17,21)           121.1554         estimate D2E/DX2                !
 ! A43   A(15,20,25)           108.7766         estimate D2E/DX2                !
 ! A44   A(15,20,29)           109.6365         estimate D2E/DX2                !
 ! A45   A(15,20,33)           112.2704         estimate D2E/DX2                !
 ! A46   A(25,20,29)           108.9818         estimate D2E/DX2                !
 ! A47   A(25,20,33)           108.6003         estimate D2E/DX2                !
 ! A48   A(29,20,33)           108.5199         estimate D2E/DX2                !
 ! A49   A(17,21,37)           109.8876         estimate D2E/DX2                !
 ! A50   A(17,21,41)           109.9045         estimate D2E/DX2                !
 ! A51   A(17,21,45)           111.7726         estimate D2E/DX2                !
 ! A52   A(37,21,41)           110.025          estimate D2E/DX2                !
 ! A53   A(37,21,45)           107.5778         estimate D2E/DX2                !
 ! A54   A(41,21,45)           107.6182         estimate D2E/DX2                !
 ! A55   A(1,23,7)             107.8083         estimate D2E/DX2                !
 ! A56   A(1,23,24)            122.1239         estimate D2E/DX2                !
 ! A57   A(7,23,24)            130.0545         estimate D2E/DX2                !
 ! A58   A(20,25,26)           111.0079         estimate D2E/DX2                !
 ! A59   A(20,25,27)           110.4156         estimate D2E/DX2                !
 ! A60   A(20,25,28)           110.8186         estimate D2E/DX2                !
 ! A61   A(26,25,27)           108.1713         estimate D2E/DX2                !
 ! A62   A(26,25,28)           108.1019         estimate D2E/DX2                !
 ! A63   A(27,25,28)           108.2231         estimate D2E/DX2                !
 ! A64   A(20,29,30)           110.9249         estimate D2E/DX2                !
 ! A65   A(20,29,31)           110.1259         estimate D2E/DX2                !
 ! A66   A(20,29,32)           111.3593         estimate D2E/DX2                !
 ! A67   A(30,29,31)           108.2142         estimate D2E/DX2                !
 ! A68   A(30,29,32)           108.1405         estimate D2E/DX2                !
 ! A69   A(31,29,32)           107.9633         estimate D2E/DX2                !
 ! A70   A(20,33,34)           111.6532         estimate D2E/DX2                !
 ! A71   A(20,33,35)           111.6288         estimate D2E/DX2                !
 ! A72   A(20,33,36)           109.4679         estimate D2E/DX2                !
 ! A73   A(34,33,35)           108.3057         estimate D2E/DX2                !
 ! A74   A(34,33,36)           107.851          estimate D2E/DX2                !
 ! A75   A(35,33,36)           107.7857         estimate D2E/DX2                !
 ! A76   A(21,37,38)           109.8038         estimate D2E/DX2                !
 ! A77   A(21,37,39)           111.436          estimate D2E/DX2                !
 ! A78   A(21,37,40)           110.4168         estimate D2E/DX2                !
 ! A79   A(38,37,39)           108.5887         estimate D2E/DX2                !
 ! A80   A(38,37,40)           108.0436         estimate D2E/DX2                !
 ! A81   A(39,37,40)           108.4643         estimate D2E/DX2                !
 ! A82   A(21,41,42)           111.3732         estimate D2E/DX2                !
 ! A83   A(21,41,43)           109.9071         estimate D2E/DX2                !
 ! A84   A(21,41,44)           110.3481         estimate D2E/DX2                !
 ! A85   A(42,41,43)           108.601          estimate D2E/DX2                !
 ! A86   A(42,41,44)           108.3715         estimate D2E/DX2                !
 ! A87   A(43,41,44)           108.1565         estimate D2E/DX2                !
 ! A88   A(21,45,46)           111.8103         estimate D2E/DX2                !
 ! A89   A(21,45,47)           111.8262         estimate D2E/DX2                !
 ! A90   A(21,45,48)           108.9907         estimate D2E/DX2                !
 ! A91   A(46,45,47)           108.2325         estimate D2E/DX2                !
 ! A92   A(46,45,48)           107.9102         estimate D2E/DX2                !
 ! A93   A(47,45,48)           107.9226         estimate D2E/DX2                !
 ! D1    D(6,1,2,3)              0.2438         estimate D2E/DX2                !
 ! D2    D(6,1,2,11)           179.9405         estimate D2E/DX2                !
 ! D3    D(23,1,2,3)          -179.6885         estimate D2E/DX2                !
 ! D4    D(23,1,2,11)            0.0082         estimate D2E/DX2                !
 ! D5    D(2,1,6,5)              0.0379         estimate D2E/DX2                !
 ! D6    D(2,1,6,49)          -179.9621         estimate D2E/DX2                !
 ! D7    D(23,1,6,5)           179.9512         estimate D2E/DX2                !
 ! D8    D(23,1,6,49)           -0.0488         estimate D2E/DX2                !
 ! D9    D(2,1,23,7)             0.0559         estimate D2E/DX2                !
 ! D10   D(2,1,23,24)          178.8517         estimate D2E/DX2                !
 ! D11   D(6,1,23,7)          -179.8685         estimate D2E/DX2                !
 ! D12   D(6,1,23,24)           -1.0727         estimate D2E/DX2                !
 ! D13   D(1,2,3,4)             -0.2517         estimate D2E/DX2                !
 ! D14   D(1,2,3,8)            179.6311         estimate D2E/DX2                !
 ! D15   D(11,2,3,4)          -179.8701         estimate D2E/DX2                !
 ! D16   D(11,2,3,8)             0.0127         estimate D2E/DX2                !
 ! D17   D(1,2,11,7)            -0.0703         estimate D2E/DX2                !
 ! D18   D(1,2,11,50)          179.9297         estimate D2E/DX2                !
 ! D19   D(3,2,11,7)           179.5804         estimate D2E/DX2                !
 ! D20   D(3,2,11,50)           -0.4196         estimate D2E/DX2                !
 ! D21   D(2,3,4,5)             -0.0101         estimate D2E/DX2                !
 ! D22   D(2,3,4,9)           -179.8914         estimate D2E/DX2                !
 ! D23   D(8,3,4,5)           -179.8921         estimate D2E/DX2                !
 ! D24   D(8,3,4,9)              0.2265         estimate D2E/DX2                !
 ! D25   D(3,4,5,6)              0.3026         estimate D2E/DX2                !
 ! D26   D(3,4,5,10)          -179.8059         estimate D2E/DX2                !
 ! D27   D(9,4,5,6)           -179.8158         estimate D2E/DX2                !
 ! D28   D(9,4,5,10)             0.0758         estimate D2E/DX2                !
 ! D29   D(4,5,6,1)             -0.306          estimate D2E/DX2                !
 ! D30   D(4,5,6,49)           179.694          estimate D2E/DX2                !
 ! D31   D(10,5,6,1)           179.8014         estimate D2E/DX2                !
 ! D32   D(10,5,6,49)           -0.1986         estimate D2E/DX2                !
 ! D33   D(13,7,11,2)         -179.2549         estimate D2E/DX2                !
 ! D34   D(13,7,11,50)           0.7451         estimate D2E/DX2                !
 ! D35   D(23,7,11,2)            0.1079         estimate D2E/DX2                !
 ! D36   D(23,7,11,50)        -179.8921         estimate D2E/DX2                !
 ! D37   D(11,7,13,12)           0.9293         estimate D2E/DX2                !
 ! D38   D(11,7,13,14)         179.9279         estimate D2E/DX2                !
 ! D39   D(23,7,13,12)        -178.3471         estimate D2E/DX2                !
 ! D40   D(23,7,13,14)           0.6515         estimate D2E/DX2                !
 ! D41   D(11,7,23,1)           -0.105          estimate D2E/DX2                !
 ! D42   D(11,7,23,24)        -178.7727         estimate D2E/DX2                !
 ! D43   D(13,7,23,1)          179.2517         estimate D2E/DX2                !
 ! D44   D(13,7,23,24)           0.584          estimate D2E/DX2                !
 ! D45   D(17,12,13,7)         179.0558         estimate D2E/DX2                !
 ! D46   D(17,12,13,14)          0.0489         estimate D2E/DX2                !
 ! D47   D(22,12,13,7)          -0.7867         estimate D2E/DX2                !
 ! D48   D(22,12,13,14)       -179.7936         estimate D2E/DX2                !
 ! D49   D(13,12,17,16)         -0.1531         estimate D2E/DX2                !
 ! D50   D(13,12,17,21)        179.9458         estimate D2E/DX2                !
 ! D51   D(22,12,17,16)        179.6912         estimate D2E/DX2                !
 ! D52   D(22,12,17,21)         -0.2098         estimate D2E/DX2                !
 ! D53   D(7,13,14,15)        -178.9292         estimate D2E/DX2                !
 ! D54   D(7,13,14,18)           1.0221         estimate D2E/DX2                !
 ! D55   D(12,13,14,15)          0.0648         estimate D2E/DX2                !
 ! D56   D(12,13,14,18)       -179.9839         estimate D2E/DX2                !
 ! D57   D(13,14,15,16)         -0.0661         estimate D2E/DX2                !
 ! D58   D(13,14,15,20)        178.681          estimate D2E/DX2                !
 ! D59   D(18,14,15,16)        179.9828         estimate D2E/DX2                !
 ! D60   D(18,14,15,20)         -1.2702         estimate D2E/DX2                !
 ! D61   D(14,15,16,17)         -0.0479         estimate D2E/DX2                !
 ! D62   D(14,15,16,19)        179.9813         estimate D2E/DX2                !
 ! D63   D(20,15,16,17)       -178.755          estimate D2E/DX2                !
 ! D64   D(20,15,16,19)          1.2742         estimate D2E/DX2                !
 ! D65   D(14,15,20,25)        -61.714          estimate D2E/DX2                !
 ! D66   D(14,15,20,29)         57.3684         estimate D2E/DX2                !
 ! D67   D(14,15,20,33)        178.069          estimate D2E/DX2                !
 ! D68   D(16,15,20,25)        116.9611         estimate D2E/DX2                !
 ! D69   D(16,15,20,29)       -123.9565         estimate D2E/DX2                !
 ! D70   D(16,15,20,33)         -3.2559         estimate D2E/DX2                !
 ! D71   D(15,16,17,12)          0.1569         estimate D2E/DX2                !
 ! D72   D(15,16,17,21)       -179.9419         estimate D2E/DX2                !
 ! D73   D(19,16,17,12)       -179.8722         estimate D2E/DX2                !
 ! D74   D(19,16,17,21)          0.0289         estimate D2E/DX2                !
 ! D75   D(12,17,21,37)         61.037          estimate D2E/DX2                !
 ! D76   D(12,17,21,41)        -60.1791         estimate D2E/DX2                !
 ! D77   D(12,17,21,45)       -179.602          estimate D2E/DX2                !
 ! D78   D(16,17,21,37)       -118.8605         estimate D2E/DX2                !
 ! D79   D(16,17,21,41)        119.9235         estimate D2E/DX2                !
 ! D80   D(16,17,21,45)          0.5005         estimate D2E/DX2                !
 ! D81   D(15,20,25,26)         58.4954         estimate D2E/DX2                !
 ! D82   D(15,20,25,27)        178.4551         estimate D2E/DX2                !
 ! D83   D(15,20,25,28)        -61.6435         estimate D2E/DX2                !
 ! D84   D(29,20,25,26)        -60.996          estimate D2E/DX2                !
 ! D85   D(29,20,25,27)         58.9637         estimate D2E/DX2                !
 ! D86   D(29,20,25,28)        178.8652         estimate D2E/DX2                !
 ! D87   D(33,20,25,26)       -179.0416         estimate D2E/DX2                !
 ! D88   D(33,20,25,27)        -59.0819         estimate D2E/DX2                !
 ! D89   D(33,20,25,28)         60.8196         estimate D2E/DX2                !
 ! D90   D(15,20,29,30)         61.8079         estimate D2E/DX2                !
 ! D91   D(15,20,29,31)       -178.4219         estimate D2E/DX2                !
 ! D92   D(15,20,29,32)        -58.686          estimate D2E/DX2                !
 ! D93   D(25,20,29,30)       -179.2362         estimate D2E/DX2                !
 ! D94   D(25,20,29,31)        -59.466          estimate D2E/DX2                !
 ! D95   D(25,20,29,32)         60.2699         estimate D2E/DX2                !
 ! D96   D(33,20,29,30)        -61.14           estimate D2E/DX2                !
 ! D97   D(33,20,29,31)         58.6302         estimate D2E/DX2                !
 ! D98   D(33,20,29,32)        178.3661         estimate D2E/DX2                !
 ! D99   D(15,20,33,34)        -60.7885         estimate D2E/DX2                !
 ! D100  D(15,20,33,35)         60.6072         estimate D2E/DX2                !
 ! D101  D(15,20,33,36)        179.861          estimate D2E/DX2                !
 ! D102  D(25,20,33,34)        178.8923         estimate D2E/DX2                !
 ! D103  D(25,20,33,35)        -59.712          estimate D2E/DX2                !
 ! D104  D(25,20,33,36)         59.5418         estimate D2E/DX2                !
 ! D105  D(29,20,33,34)         60.5543         estimate D2E/DX2                !
 ! D106  D(29,20,33,35)       -178.0501         estimate D2E/DX2                !
 ! D107  D(29,20,33,36)        -58.7962         estimate D2E/DX2                !
 ! D108  D(17,21,37,38)       -179.376          estimate D2E/DX2                !
 ! D109  D(17,21,37,39)        -59.02           estimate D2E/DX2                !
 ! D110  D(17,21,37,40)         61.5907         estimate D2E/DX2                !
 ! D111  D(41,21,37,38)        -58.2323         estimate D2E/DX2                !
 ! D112  D(41,21,37,39)         62.1237         estimate D2E/DX2                !
 ! D113  D(41,21,37,40)       -177.2656         estimate D2E/DX2                !
 ! D114  D(45,21,37,38)         58.7289         estimate D2E/DX2                !
 ! D115  D(45,21,37,39)        179.0848         estimate D2E/DX2                !
 ! D116  D(45,21,37,40)        -60.3044         estimate D2E/DX2                !
 ! D117  D(17,21,41,42)         61.6293         estimate D2E/DX2                !
 ! D118  D(17,21,41,43)       -177.9712         estimate D2E/DX2                !
 ! D119  D(17,21,41,44)        -58.7765         estimate D2E/DX2                !
 ! D120  D(37,21,41,42)        -59.5042         estimate D2E/DX2                !
 ! D121  D(37,21,41,43)         60.8953         estimate D2E/DX2                !
 ! D122  D(37,21,41,44)       -179.91           estimate D2E/DX2                !
 ! D123  D(45,21,41,42)       -176.4401         estimate D2E/DX2                !
 ! D124  D(45,21,41,43)        -56.0406         estimate D2E/DX2                !
 ! D125  D(45,21,41,44)         63.1541         estimate D2E/DX2                !
 ! D126  D(17,21,45,46)        -60.6327         estimate D2E/DX2                !
 ! D127  D(17,21,45,47)         60.9206         estimate D2E/DX2                !
 ! D128  D(17,21,45,48)       -179.8434         estimate D2E/DX2                !
 ! D129  D(37,21,45,46)         60.0831         estimate D2E/DX2                !
 ! D130  D(37,21,45,47)       -178.3636         estimate D2E/DX2                !
 ! D131  D(37,21,45,48)        -59.1276         estimate D2E/DX2                !
 ! D132  D(41,21,45,46)        178.6042         estimate D2E/DX2                !
 ! D133  D(41,21,45,47)        -59.8425         estimate D2E/DX2                !
 ! D134  D(41,21,45,48)         59.3935         estimate D2E/DX2                !
 --------------------------------------------------------------------------------
 Trust Radius=3.00D-01 FncErr=5.00D-06 GrdErr=5.00D-06 EigMax=2.50D+02 EigMin=1.00D-04
 Number of steps in this run=    289 maximum allowed number of steps=    300.
 GradGradGradGradGradGradGradGradGradGradGradGradGradGradGradGradGradGrad

 Leave Link  103 at Wed Mar  6 12:17:29 2019, MaxMem=  1342177280 cpu:               0.9 elap:               0.1
 (Enter /gpfs/apps/hpc/Apps/Restricted/Gaussian/g16/Rev_B.01-AVX/g16/l202.exe)
                          Input orientation:                          
 ---------------------------------------------------------------------
 Center     Atomic      Atomic             Coordinates (Angstroms)
 Number     Number       Type             X           Y           Z
 ---------------------------------------------------------------------
      1          6           0       -0.483053    2.715584    0.416145
      2          6           0       -1.881052    2.898359    0.327601
      3          6           0       -2.412894    4.190122    0.243421
      4          6           0       -1.520456    5.261988    0.256277
      5          6           0       -0.133595    5.064531    0.350314
      6          6           0        0.427051    3.782688    0.429804
      7          6           0       -1.518543    0.752015    0.424651
      8          1           0       -3.482079    4.346339    0.169021
      9          1           0       -1.905266    6.273153    0.194132
     10          1           0        0.529539    5.922761    0.360617
     11          7           0       -2.496427    1.656282    0.336302
     12          6           0       -3.063668   -1.189037    0.352314
     13          6           0       -1.739219   -0.685003    0.447265
     14          6           0       -0.658724   -1.573623    0.540497
     15          6           0       -0.848757   -2.950289    0.541355
     16          6           0       -2.167874   -3.417641    0.446447
     17          6           0       -3.286126   -2.585001    0.353326
     18          1           0        0.347044   -1.175374    0.612680
     19          1           0       -2.332312   -4.483825    0.445491
     20          6           0        0.361420   -3.887798    0.614442
     21          6           0       -4.705200   -3.167413    0.253385
     22          8           0       -3.996451   -0.443438    0.268369
     23          7           0       -0.287014    1.356600    0.476439
     24          1           0        0.638260    0.947632    0.528152
     25          6           0        1.245777   -3.654521   -0.627285
     26          1           0        1.575562   -2.614306   -0.683508
     27          1           0        2.133816   -4.292376   -0.588643
     28          1           0        0.697384   -3.887082   -1.544179
     29          6           0        1.182786   -3.575549    1.880731
     30          1           0        0.588653   -3.743887    2.782861
     31          1           0        2.064321   -4.221634    1.926387
     32          1           0        1.524899   -2.537627    1.887374
     33          6           0       -0.049460   -5.366088    0.652100
     34          1           0       -0.664682   -5.591665    1.527396
     35          1           0       -0.608161   -5.652070   -0.243331
     36          1           0        0.845240   -5.991639    0.701283
     37          6           0       -5.359002   -2.732161   -1.075251
     38          1           0       -6.372934   -3.138229   -1.139958
     39          1           0       -5.413698   -1.647265   -1.155355
     40          1           0       -4.786354   -3.113816   -1.925275
     41          6           0       -5.557474   -2.682549    1.445687
     42          1           0       -5.658132   -1.598206    1.446625
     43          1           0       -6.556546   -3.125767    1.394151
     44          1           0       -5.097957   -2.986879    2.390277
     45          6           0       -4.694231   -4.704659    0.283816
     46          1           0       -4.126052   -5.123400   -0.551056
     47          1           0       -4.268835   -5.089758    1.214382
     48          1           0       -5.721459   -5.069139    0.207540
     49          1           0        1.483643    3.627668    0.496750
     50          1           0       -3.478371    1.473839    0.286300
 ---------------------------------------------------------------------
                    Distance matrix (angstroms):
                    1          2          3          4          5
     1  C    0.000000
     2  C    1.412674   0.000000
     3  C    2.434827   1.399498   0.000000
     4  C    2.754258   2.392041   1.394815   0.000000
     5  C    2.375712   2.783240   2.443608   1.404000   0.000000
     6  C    1.402564   2.473828   2.875070   2.451780   1.401344
     7  C    2.219891   2.178904   3.557146   4.513115   4.530055
     8  H    3.422658   2.164505   1.083095   2.166562   3.429433
     9  H    3.837744   3.377519   2.144559   1.083695   2.150344
    10  H    3.363690   3.867693   3.416677   2.156383   1.084625
    11  N    2.276438   1.386188   2.536917   3.736314   4.147208
    12  C    4.680781   4.255114   5.419476   6.633736   6.905972
    13  C    3.625316   3.588164   4.925671   5.954077   5.970307
    14  C    4.294604   4.640909   6.032091   6.895574   6.661608
    15  C    5.679043   5.942896   7.315788   8.244631   8.048931
    16  C    6.360502   6.323626   7.614415   8.705818   8.723232
    17  C    5.996446   5.660577   6.832050   8.043771   8.273681
    18  H    3.983371   4.651987   6.045011   6.712243   6.263886
    19  H    7.433176   7.396903   8.676675   9.781400   9.798700
    20  C    6.660113   7.152824   8.549109   9.348172   8.969894
    21  C    7.243112   6.691406   7.706367   9.010960   9.416680
    22  O    4.727073   3.955506   4.896749   6.219532   6.728008
    23  N    1.374374   2.222640   3.550001   4.101452   3.713246
    24  H    2.096555   3.192568   4.461430   4.831939   4.192403
    25  C    6.682502   7.323189   8.699565   9.377466   8.881455
    26  H    5.818493   6.584831   7.941487   8.514959   7.934390
    27  H    7.547788   8.286455   9.660107  10.264184   9.673391
    28  H    6.987954   7.496273   8.838018   9.584672   9.187546
    29  C    6.670711   7.328765   8.712941   9.383412   8.872768
    30  H    6.962375   7.499812   8.854747   9.588418   9.166633
    31  H    7.542873   8.295564   9.676542  10.275163   9.672006
    32  H    5.813141   6.601768   7.966894   8.530455   7.931328
    33  C    8.096734   8.471193   9.852613  10.736690  10.435323
    34  H    8.383213   8.660229  10.019391  10.961290  10.734155
    35  H    8.394534   8.663490  10.018120  10.963510  10.743517
    36  H    8.812570   9.306147  10.700156  11.508200  11.104963
    37  C    7.461707   6.765123   7.637830   8.967375   9.493446
    38  H    8.448626   7.666233   8.443955   9.801003  10.413238
    39  H    6.768702   5.944867   6.710923   8.055297   8.671490
    40  H    7.614627   7.047161   7.980230   9.250911   9.680487
    41  C    7.479943   6.775893   7.652936   8.990433   9.520271
    42  H    6.815579   5.978097   6.744183   8.099355   8.724361
    43  H    8.483230   7.699861   8.486240   9.849436  10.460635
    44  H    7.596882   7.017060   7.957883   9.241011   9.676339
    45  C    8.532968   8.106897   9.182770  10.459812  10.781507
    46  H    8.698080   8.376197   9.503041  10.737653  10.979350
    47  H    8.711641   8.384384   9.513330  10.753148  10.998018
    48  H    9.385432   8.845573   9.832691  11.152712  11.573067
    49  H    2.169398   3.446981   3.945064   3.428329   2.168289
    50  H    3.245107   2.140652   2.918094   4.264318   4.907616
                    6          7          8          9         10
     6  C    0.000000
     7  C    3.601436   0.000000
     8  H    3.958157   4.103655   0.000000
     9  H    3.420184   5.539464   2.489896   0.000000
    10  H    2.143642   5.561956   4.314498   2.465516   0.000000
    11  N    3.616223   1.334826   2.869826   4.656735   5.230670
    12  C    6.075292   2.482001   5.554192   7.553224   7.967991
    13  C    4.965208   1.454039   5.331921   6.964739   6.986939
    14  C    5.466372   2.482197   6.569268   7.952718   7.592108
    15  C    6.853693   3.764211   7.766196   9.290245   8.981280
    16  C    7.653669   4.219969   7.879307   9.697634   9.722475
    17  C    7.371635   3.776918   6.936558   8.966549   9.324235
    18  H    4.962079   2.688977   6.734117   7.792858   7.104953
    19  H    8.714905   5.298743   8.908995  10.768385  10.793258
    20  C    7.672989   5.009805   9.097906  10.419187   9.815282
    21  C    8.641471   5.054308   7.613121   9.847204  10.490246
    22  O    6.119932   2.755641   4.818341   7.034995   7.811631
    23  N    2.529420   1.372905   4.386512   5.183718   4.640043
    24  H    2.844613   2.168128   5.353259   5.911199   4.979136
    25  C    7.556443   5.307127   9.327405  10.448086   9.654702
    26  H    6.593942   4.704638   8.646220   9.585058   8.664056
    27  H    8.316065   6.309705  10.331492  11.338312  10.383825
    28  H    7.924333   5.505256   9.391070  10.631363   9.994470
    29  C    7.537903   5.305201   9.351322  10.458375   9.641337
    30  H    7.887479   5.496778   9.426281  10.642473   9.965683
    31  H    8.305997   6.311047  10.356691  11.353364  10.378629
    32  H    6.578462   4.714217   8.683983   9.605360   8.654472
    33  C    9.163874   6.296120  10.312491  11.795155  11.307445
    34  H    9.501320   6.495183  10.418581  12.003772  11.634842
    35  H    9.515221   6.502869  10.411418  12.003533  11.646280
    36  H    9.787035   7.151284  11.219750  12.579651  11.923449
    37  C    8.842333   5.397992   7.428069   9.728068  10.566187
    38  H    9.828685   6.414601   8.129528  10.503045  11.489012
    39  H    8.130896   4.839958   6.434937   8.767168   9.742973
    40  H    8.960344   5.580806   7.857552  10.045285  10.730505
    41  C    8.868249   5.399232   7.439248   9.752416  10.596248
    42  H    8.186415   4.868693   6.457948   8.809713   9.799573
    43  H    9.870529   6.431065   8.172249  10.555290  11.539352
    44  H    8.955233   5.536715   7.830781  10.038153  10.731725
    45  C    9.913824   6.315071   9.132527  11.326903  11.842117
    46  H   10.050435   6.501662   9.518885  11.634802  12.021786
    47  H   10.069121   6.504928   9.526368  11.650885  12.042794
    48  H   10.780001   7.183138   9.678199  11.967084  12.645959
    49  H    1.070000   4.157848   5.028150   4.309858   2.489237
    50  H    4.539130   2.093107   2.874896   5.051393   5.988470
                   11         12         13         14         15
    11  N    0.000000
    12  C    2.901355   0.000000
    13  C    2.463187   1.420293   0.000000
    14  C    3.721711   2.442760   1.402072   0.000000
    15  C    4.896668   2.836120   2.435836   1.389720   0.000000
    16  C    5.085742   2.403744   2.766054   2.384697   1.402674
    17  C    4.314209   1.413578   2.451885   2.821553   2.471752
    18  H    4.022436   3.420663   2.149493   1.084150   2.141343
    19  H    6.143270   3.376269   3.844842   3.358452   2.135851
    20  C    6.243515   4.368438   3.833866   2.530132   1.532577
    21  C    5.305995   2.572622   3.872595   4.358505   3.873270
    22  O    2.581378   1.197100   2.277159   3.534373   4.033212
    23  N    2.234044   3.769016   2.505572   2.954400   4.343853
    24  H    3.219511   4.277914   2.885212   2.835321   4.171952
    25  C    6.567893   5.060587   4.345445   3.053027   2.499747
    26  H    5.988241   4.962537   3.998579   2.751953   2.736877
    27  H    7.594814   6.126170   5.393204   4.057691   3.460323
    28  H    6.668247   5.002164   4.489565   3.396615   2.759997
    29  C    6.579812   5.105279   4.352952   3.032341   2.512378
    30  H    6.683202   5.076836   4.497863   3.360683   2.778542
    31  H    7.607804   6.162031   5.400229   4.043220   3.467082
    32  H    6.013797   5.022952   4.020024   2.740728   2.759764
    33  C    7.443189   5.159755   4.980944   3.842714   2.547003
    34  H    7.570121   5.149668   5.137767   4.137471   2.825425
    35  H    7.570570   5.128642   5.140814   4.153393   2.823692
    36  H    8.354080   6.202123   5.907989   4.669756   3.484970
    37  C    5.426348   3.112512   4.428514   5.103476   4.796176
    38  H    6.339873   4.120372   5.478039   6.158256   5.777427
    39  H    4.652841   2.829431   4.122637   5.048873   5.041367
    40  H    5.754332   3.443811   4.562139   5.048718   4.649266
    41  C    5.424592   3.105658   4.423359   5.103610   4.802241
    42  H    4.671283   2.845379   4.146148   5.080920   5.077177
    43  H    6.361730   4.127535   5.482751   6.158099   5.773812
    44  H    5.704885   3.394681   4.511657   5.012561   4.634172
    45  C    6.730131   3.875955   4.991638   5.114156   4.234597
    46  H    7.029023   4.174200   5.137410   5.080824   4.081230
    47  H    7.030043   4.172675   5.137051   5.084312   4.089893
    48  H    7.459806   4.705317   5.927592   6.161232   5.323925
    49  H    4.444442   6.625673   5.384090   5.625396   6.979370
    50  H    1.000000   2.695783   2.776897   4.159573   5.152944
                   16         17         18         19         20
    16  C    0.000000
    17  C    1.397300   0.000000
    18  H    3.373456   3.905667   0.000000
    19  H    1.078791   2.126920   4.260604   0.000000
    20  C    2.578100   3.882017   2.712463   2.764052   0.000000
    21  C    2.556934   1.537193   5.442654   2.720375   5.130298
    22  O    3.495896   2.257891   4.418170   4.373266   5.565467
    23  N    5.131463   4.954397   2.613711   6.188276   5.286135
    24  H    5.190055   5.283073   2.144553   6.191273   4.844117
    25  C    3.586367   4.758531   2.914001   3.826397   1.542203
    26  H    3.991924   4.971106   2.293444   4.476742   2.186458
    27  H    4.510112   5.760053   3.788328   4.588288   2.180019
    28  H    3.520322   4.600467   3.482548   3.673411   2.184609
    29  C    3.648154   4.825487   2.840292   3.903946   1.541308
    30  H    3.628182   4.718005   3.371249   3.813508   2.185037
    31  H    4.555008   5.812088   3.735581   4.646739   2.175435
    32  H    4.060452   5.049902   2.206336   4.554645   2.190206
    33  C    2.885553   4.277817   4.209614   2.456112   1.534790
    34  H    2.855594   4.158177   4.622112   2.275702   2.188500
    35  H    2.810902   4.115144   4.656821   2.193620   2.188268
    36  H    3.971053   5.366045   4.842774   3.526439   2.160502
    37  C    3.601214   2.521766   6.150744   3.813376   6.075672
    38  H    4.503030   3.473376   7.216831   4.544326   6.999378
    39  H    4.029314   2.771647   6.044400   4.483717   6.442372
    40  H    3.545957   2.778912   6.045705   3.676925   5.792132
    41  C    3.609464   2.522259   6.150513   3.827095   6.097286
    42  H    4.061108   2.792039   6.077532   4.515545   6.493825
    43  H    4.499308   3.474391   7.216251   4.537448   7.003349
    44  H    3.542516   2.755614   6.007448   3.697544   5.811200
    45  C    2.839955   2.545691   6.162666   2.377723   5.131879
    46  H    2.781921   2.822561   6.078633   2.149341   4.798177
    47  H    2.792801   2.825056   6.082005   2.169901   4.821193
    48  H    3.925874   3.481816   7.221653   3.447540   6.209875
    49  H    7.935521   7.833807   4.937055   8.964400   7.599702
    50  H    5.066520   4.063943   4.664617   6.068983   6.602940
                   21         22         23         24         25
    21  C    0.000000
    22  O    2.814709   0.000000
    23  N    6.327465   4.128359   0.000000
    24  H    6.749938   4.845937   1.012947   0.000000
    25  C    6.035477   6.212423   5.355277   4.783714   0.000000
    26  H    6.374297   6.055251   4.536823   3.877378   1.092688
    27  H    6.981883   7.288962   6.237447   5.562518   1.094059
    28  H    5.739083   6.097221   5.705097   5.260467   1.093396
    29  C    6.122353   6.263731   5.334645   4.752383   2.510050
    30  H    5.895375   6.183754   5.665805   5.205432   3.474031
    31  H    7.052427   7.331899   6.224775   5.541662   2.740962
    32  H    6.471529   6.123080   4.520926   3.844560   2.765659
    33  C    5.164210   6.321271   6.729177   6.352274   2.498785
    34  H    4.881177   6.260198   7.037438   6.742296   3.470595
    35  H    4.817258   6.234757   7.052848   6.760534   2.752219
    36  H    6.243737   7.376443   7.438358   6.944516   2.718022
    37  C    1.543430   2.983306   6.697072   7.216573   6.683901
    38  H    2.173383   3.859139   7.736579   8.284545   7.653375
    39  H    2.190289   2.341960   6.161887   6.796608   6.975424
    40  H    2.180830   3.544988   6.782102   7.207017   6.193847
    41  C    1.543712   2.972623   6.710582   7.239282   7.178173
    42  H    2.189592   2.341572   6.206533   6.853425   7.496232
    43  H    2.174986   3.875095   7.761497   8.313108   8.077254
    44  H    2.180174   3.490688   6.758236   7.200838   7.056514
    45  C    1.537586   4.318002   7.496634   7.774545   6.100540
    46  H    2.192812   4.752925   7.601602   7.792354   5.569557
    47  H    2.193021   4.749466   7.612817   7.810286   5.988538
    48  H    2.156721   4.937253   8.419954   8.760728   7.158244
    49  H    9.194245   6.830629   2.879825   2.810383   7.372266
    50  H    4.800772   1.986121   3.199165   4.157167   7.032232
                   26         27         28         29         30
    26  H    0.000000
    27  H    1.771035   0.000000
    28  H    1.769720   1.772188   0.000000
    29  C    2.766511   2.741552   3.473136   0.000000
    30  H    3.776990   3.749054   4.330774   1.093238   0.000000
    31  H    3.103859   2.516984   3.745033   1.093899   1.771831
    32  H    2.572524   3.095252   3.779069   1.092871   1.770174
    33  C    3.463647   2.731116   2.751159   2.496797   2.752974
    34  H    4.332604   3.741305   3.767678   2.757301   2.561508
    35  H    3.767016   3.080007   2.551830   3.468583   3.772448
    36  H    3.722552   2.492355   3.081091   2.709710   3.074279
    37  C    6.946620   7.668988   6.183328   7.228010   7.161230
    38  H    7.978811   8.602372   7.121346   8.148909   8.013677
    39  H    7.071603   8.017652   6.520221   7.513301   7.478876
    40  H    6.501190   7.145932   5.551086   7.094330   7.173161
    41  C    7.444349   8.117018   7.036579   6.813062   6.378820
    42  H    7.608959   8.492074   7.387587   7.134178   6.738828
    43  H    8.408891   8.989707   7.863389   7.767646   7.305098
    44  H    7.356821   7.929491   7.062315   6.328815   5.750193
    45  C    6.679491   6.895896   5.751479   6.193897   5.922598
    46  H    6.230690   6.314900   5.077431   6.040959   5.936876
    47  H    6.624713   6.699303   5.806842   5.697106   5.278890
    48  H    7.750270   7.933638   6.757760   7.259406   6.943060
    49  H    6.353243   8.020468   7.826561   7.341134   7.769629
    50  H    6.572343   8.093911   7.037546   7.054425   7.070938
                   31         32         33         34         35
    31  H    0.000000
    32  H    1.768722   0.000000
    33  C    2.720598   3.464780   0.000000
    34  H    3.079551   3.775049   1.093401   0.000000
    35  H    3.727732   4.334698   1.093494   1.772658   0.000000
    36  H    2.473854   3.714693   1.092804   1.767005   1.766346
    37  C    8.144574   7.496872   6.173536   6.081708   5.638125
    38  H    9.042318   8.479459   6.939824   6.761528   6.352633
    39  H    8.487949   7.628569   6.772857   6.731166   6.321664
    40  H    7.936895   7.395958   5.844121   5.920207   5.170006
    41  C    7.790482   7.097612   6.178137   5.692894   6.013862
    42  H    8.169995   7.257596   6.803338   6.394434   6.692680
    43  H    8.706523   8.117816   6.921838   6.388464   6.666846
    44  H    7.282722   6.657098   5.845444   5.213770   5.847855
    45  C    6.972043   6.778274   4.706062   4.309354   4.227463
    46  H    6.728419   6.675733   4.257356   4.064519   3.570678
    47  H    6.431909   6.366604   4.265635   3.652370   3.980158
    48  H    8.018171   7.857487   5.697138   5.252242   5.166131
    49  H    7.999537   6.320316   9.124812   9.522270   9.541326
    50  H    8.114785   6.609690   7.660016   7.705745   7.700467
                   36         37         38         39         40
    36  H    0.000000
    37  C    7.229999   0.000000
    38  H    7.977102   1.094137   0.000000
    39  H    7.841874   1.089223   1.772948   0.000000
    40  H    6.848031   1.093676   1.770467   1.771189   0.000000
    41  C    7.245617   2.529225   2.749214   2.803195   3.484825
    42  H    7.883631   2.781221   3.094030   2.613896   3.798260
    43  H    7.967416   2.772541   2.540783   3.161020   3.761956
    44  H    6.870435   3.484668   3.756465   3.803389   4.328649
    45  C    5.702310   2.485907   2.701644   3.454925   2.723849
    46  H    5.199609   2.740980   3.055518   3.755892   2.522480
    47  H    5.218278   3.462535   3.711956   4.333258   3.745613
    48  H    6.649536   2.690426   2.443069   3.696136   3.040824
    49  H    9.642638   9.473141  10.496760   8.838987   9.519804
    50  H    8.637082   4.804272   5.628843   3.945269   5.258180
                   41         42         43         44         45
    41  C    0.000000
    42  H    1.089005   0.000000
    43  H    1.094186   1.772948   0.000000
    44  H    1.093628   1.769940   1.771733   0.000000
    45  C    2.486777   3.454169   2.682156   2.747898   0.000000
    46  H    3.463193   4.331858   3.698874   3.763079   1.093244
    47  H    2.740209   3.764973   3.020463   2.547994   1.093259
    48  H    2.693643   3.686017   2.425306   3.080406   1.092639
    49  H    9.502455   8.900392  10.538447   9.521299  10.374929
    50  H    4.789823   3.941468   5.644366   5.191125   6.296996
                   46         47         48         49         50
    46  H    0.000000
    47  H    1.771522   0.000000
    48  H    1.767409   1.767561   0.000000
    49  H   10.447381  10.468979  11.297415   0.000000
    50  H    6.681633   6.675850   6.917240   5.413396   0.000000
 Symmetry turned off by external request.
 Stoichiometry    C21H26N2O(1+,2)
 Framework group  C1[X(C21H26N2O)]
 Deg. of freedom   144
 Full point group                 C1      NOp   1
 Rotational constants (GHZ):           0.3527447           0.1441787           0.1071910
 Leave Link  202 at Wed Mar  6 12:17:30 2019, MaxMem=  1342177280 cpu:               2.2 elap:               0.3
 (Enter /gpfs/apps/hpc/Apps/Restricted/Gaussian/g16/Rev_B.01-AVX/g16/l301.exe)
 Standard basis: 6-31G(d,p) (6D, 7F)
 Ernie: Thresh=  0.10000D-02 Tol=  0.10000D-05 Strict=F.
   490 basis functions,   854 primitive gaussians,   490 cartesian basis functions
    87 alpha electrons       86 beta electrons
       nuclear repulsion energy      2040.0566555883 Hartrees.
 IExCor=  402 DFT=T Ex+Corr=B3LYP ExCW=0 ScaHFX=  0.200000
 ScaDFX=  0.800000  0.720000  1.000000  0.810000 ScalE2=  1.000000  1.000000
 IRadAn=      5 IRanWt=     -1 IRanGd=            0 ICorTp=0 IEmpDi=141
 NAtoms=   50 NActive=   50 NUniq=   50 SFac= 1.00D+00 NAtFMM=   60 NAOKFM=F Big=F
 Integral buffers will be    131072 words long.
 Raffenetti 2 integral format.
 Two-electron integral symmetry is turned off.
 R6Disp:  Grimme-D3(BJ) Dispersion energy=       -0.1089690331 Hartrees.
 Nuclear repulsion after empirical dispersion term =     2039.9476865551 Hartrees.
 Using the following non-standard input for PCM:
 radii=bondi
 dis
 rep
 cav
 --- end of non-standard input.
 ------------------------------------------------------------------------------
 Polarizable Continuum Model (PCM)
 =================================
 Model                : C-PCM.
 Atomic radii         : Bondi.
 Polarization charges : Total charges.
 Charge compensation  : None.
 Solution method      : On-the-fly selection.
 Cavity type          : Scaled VdW (van der Waals Surface) (Alpha=1.100).
 Cavity algorithm     : GePol (No added spheres)
                        Default sphere list used, NSphG=   50.
                        Lebedev-Laikov grids with approx.  5.0 points / Ang**2.
                        Smoothing algorithm: York/Karplus (Gamma=1.0000).
                        Polarization charges: spherical gaussians, with
                                              point-specific exponents (IZeta= 3).
                        Self-potential: point-specific (ISelfS= 7).
                        Self-field    : sphere-specific E.n sum rule (ISelfD= 2).
 1st derivatives      : Analytical E(r).r(x)/FMM algorithm (CHGder, D1EAlg=3).
                        Cavity 1st derivative terms included.
 Solvent              : Dichloromethane, Eps=   8.930000 Eps(inf)=   2.028346
 ------------------------------------------------------------------------------
 GePol: Number of generator spheres                  =      50
 GePol: Total number of spheres                      =      50
 GePol: Number of exposed spheres                    =      50 (100.00%)
 GePol: Number of points                             =    3252
 GePol: Average weight of points                     =       0.12
 GePol: Minimum weight of points                     =   0.55D-10
 GePol: Maximum weight of points                     =    0.21770
 GePol: Number of points with low weight             =     227
 GePol: Fraction of low-weight points (<1% of avg)   =       6.98%
 GePol: Cavity surface area                          =    385.977 Ang**2
 GePol: Cavity volume                                =    369.376 Ang**3
 PCM non-electrostatic energy =         0.0165311546 Hartrees.
 Nuclear repulsion after PCM non-electrostatic terms =     2039.9642177097 Hartrees.
 Leave Link  301 at Wed Mar  6 12:17:30 2019, MaxMem=  1342177280 cpu:               2.1 elap:               0.2
 (Enter /gpfs/apps/hpc/Apps/Restricted/Gaussian/g16/Rev_B.01-AVX/g16/l302.exe)
 NPDir=0 NMtPBC=     1 NCelOv=     1 NCel=       1 NClECP=     1 NCelD=      1
         NCelK=      1 NCelE2=     1 NClLst=     1 CellRange=     0.0.
 One-electron integrals computed using PRISM.
 NBasis=   490 RedAO= T EigKep=  3.08D-04  NBF=   490
 NBsUse=   490 1.00D-06 EigRej= -1.00D+00 NBFU=   490
 Precomputing XC quadrature grid using
 IXCGrd= 4 IRadAn=           5 IRanWt=          -1 IRanGd=           0 AccXCQ= 0.00D+00.
 Generated NRdTot=       0 NPtTot=           0 NUsed=           0 NTot=          32
 NSgBfM=   484   484   484   484   484 MxSgAt=    50 MxSgA2=    50.
 Leave Link  302 at Wed Mar  6 12:17:31 2019, MaxMem=  1342177280 cpu:              10.4 elap:               0.7
 (Enter /gpfs/apps/hpc/Apps/Restricted/Gaussian/g16/Rev_B.01-AVX/g16/l303.exe)
 DipDrv:  MaxL=1.
 Leave Link  303 at Wed Mar  6 12:17:31 2019, MaxMem=  1342177280 cpu:               1.4 elap:               0.1
 (Enter /gpfs/apps/hpc/Apps/Restricted/Gaussian/g16/Rev_B.01-AVX/g16/l401.exe)
 ExpMin= 1.61D-01 ExpMax= 5.48D+03 ExpMxC= 8.25D+02 IAcc=3 IRadAn=         5 AccDes= 0.00D+00
 Harris functional with IExCor=  402 and IRadAn=       5 diagonalized for initial guess.
 HarFok:  IExCor=  402 AccDes= 0.00D+00 IRadAn=         5 IDoV= 1 UseB2=F ITyADJ=14
 ICtDFT=  3500011 ScaDFX=  1.000000  1.000000  1.000000  1.000000
 FoFCou: FMM=F IPFlag=           0 FMFlag=      100000 FMFlg1=           0
         NFxFlg=           0 DoJE=T BraDBF=F KetDBF=T FulRan=T
         wScrn=  0.000000 ICntrl=       500 IOpCl=  0 I1Cent=   200000004 NGrid=           0
         NMat0=    1 NMatS0=      1 NMatT0=    0 NMatD0=    1 NMtDS0=    0 NMtDT0=    0
 Symmetry not used in FoFCou.
 Harris En= -1000.59909333607    
 JPrj=0 DoOrth=F DoCkMO=F.
 Initial guess <Sx>= 0.0000 <Sy>= 0.0000 <Sz>= 0.5000 <S**2>= 0.7500 S= 0.5000
 Leave Link  401 at Wed Mar  6 12:17:34 2019, MaxMem=  1342177280 cpu:              32.7 elap:               2.1
 (Enter /gpfs/apps/hpc/Apps/Restricted/Gaussian/g16/Rev_B.01-AVX/g16/l502.exe)
 Two-electron integral symmetry not used.
 UHF open shell SCF:
 Using DIIS extrapolation, IDIIS=  1040.
 NGot=  1342177280 LenX=  1341685074 LenY=  1341444484
 Requested convergence on RMS density matrix=1.00D-08 within 128 cycles.
 Requested convergence on MAX density matrix=1.00D-06.
 Requested convergence on             energy=1.00D-06.
 No special actions if energy rises.
 Fock matrices will be formed incrementally for  20 cycles.

 Cycle   1  Pass 1  IDiag  1:
 FoFJK:  IHMeth= 1 ICntrl=       0 DoSepK=F KAlg= 0 I1Cent=           0 FoldK=F
 IRaf= 670000000 NMat=       1 IRICut=       1 DoRegI=T DoRafI=F ISym2E= 0 IDoP0=0 IntGTp=1.
 FoFCou: FMM=F IPFlag=           0 FMFlag=      100000 FMFlg1=           0
         NFxFlg=           0 DoJE=F BraDBF=F KetDBF=F FulRan=T
         wScrn=  0.000000 ICntrl=         0 IOpCl=  1 I1Cent=           0 NGrid=           0
         NMat0=    1 NMatS0=      1 NMatT0=    0 NMatD0=    1 NMtDS0=    0 NMtDT0=    0
 Symmetry not used in FoFCou.
 Inv3:  Mode=1 IEnd=    31726512.
 Iteration    1 A*A^-1 deviation from unit magnitude is 7.55D-15 for   3251.
 Iteration    1 A*A^-1 deviation from orthogonality  is 3.00D-15 for   3231   3108.
 Iteration    1 A^-1*A deviation from unit magnitude is 7.55D-15 for   3251.
 Iteration    1 A^-1*A deviation from orthogonality  is 1.96D-15 for    624    436.
 E= -999.978990444110    
 DIIS: error= 2.96D-02 at cycle   1 NSaved=   1.
 NSaved= 1 IEnMin= 1 EnMin= -999.978990444110     IErMin= 1 ErrMin= 2.96D-02
 ErrMax= 2.96D-02  0.00D+00 EMaxC= 1.00D-01 BMatC= 2.42D+00 BMatP= 2.42D+00
 IDIUse=3 WtCom= 7.04D-01 WtEn= 2.96D-01
 Coeff-Com:  0.100D+01
 Coeff-En:   0.100D+01
 Coeff:      0.100D+01
 Gap=     0.138 Goal=   None    Shift=    0.000
 Gap=     0.080 Goal=   None    Shift=    0.000
 GapD=    0.080 DampG=0.500 DampE=0.500 DampFc=0.2500 IDamp=-1.
 Damping current iteration by 2.50D-01
 RMSDP=3.88D-03 MaxDP=1.82D-01              OVMax= 3.86D-01

 Cycle   2  Pass 1  IDiag  1:
 RMSU=  9.48D-04    CP:  9.85D-01
 E= -1000.20803564892     Delta-E=       -0.229045204813 Rises=F Damp=T
 DIIS: error= 1.84D-02 at cycle   2 NSaved=   2.
 NSaved= 2 IEnMin= 2 EnMin= -1000.20803564892     IErMin= 2 ErrMin= 1.84D-02
 ErrMax= 1.84D-02  0.00D+00 EMaxC= 1.00D-01 BMatC= 6.12D-01 BMatP= 2.42D+00
 IDIUse=3 WtCom= 8.16D-01 WtEn= 1.84D-01
 Coeff-Com: -0.794D+00 0.179D+01
 Coeff-En:   0.000D+00 0.100D+01
 Coeff:     -0.648D+00 0.165D+01
 Gap=     0.160 Goal=   None    Shift=    0.000
 Gap=     0.140 Goal=   None    Shift=    0.000
 RMSDP=1.42D-03 MaxDP=5.82D-02 DE=-2.29D-01 OVMax= 2.67D-01

 Cycle   3  Pass 1  IDiag  1:
 RMSU=  1.09D-03    CP:  9.53D-01  1.83D+00
 E= -1000.58768853436     Delta-E=       -0.379652885435 Rises=F Damp=F
 DIIS: error= 7.57D-03 at cycle   3 NSaved=   3.
 NSaved= 3 IEnMin= 3 EnMin= -1000.58768853436     IErMin= 3 ErrMin= 7.57D-03
 ErrMax= 7.57D-03  0.00D+00 EMaxC= 1.00D-01 BMatC= 1.16D-01 BMatP= 6.12D-01
 IDIUse=3 WtCom= 9.24D-01 WtEn= 7.57D-02
 Coeff-Com: -0.339D+00 0.777D+00 0.562D+00
 Coeff-En:   0.000D+00 0.000D+00 0.100D+01
 Coeff:     -0.314D+00 0.718D+00 0.595D+00
 Gap=     0.143 Goal=   None    Shift=    0.000
 Gap=     0.082 Goal=   None    Shift=    0.000
 RMSDP=5.59D-04 MaxDP=5.46D-02 DE=-3.80D-01 OVMax= 9.67D-02

 Cycle   4  Pass 1  IDiag  1:
 RMSU=  4.53D-04    CP:  9.57D-01  1.90D+00  7.12D-01
 E= -1000.60924316562     Delta-E=       -0.021554631263 Rises=F Damp=F
 DIIS: error= 6.50D-03 at cycle   4 NSaved=   4.
 NSaved= 4 IEnMin= 4 EnMin= -1000.60924316562     IErMin= 4 ErrMin= 6.50D-03
 ErrMax= 6.50D-03  0.00D+00 EMaxC= 1.00D-01 BMatC= 3.65D-02 BMatP= 1.16D-01
 IDIUse=3 WtCom= 9.35D-01 WtEn= 6.50D-02
 Coeff-Com: -0.345D-01 0.102D+00 0.357D+00 0.576D+00
 Coeff-En:   0.000D+00 0.000D+00 0.211D+00 0.789D+00
 Coeff:     -0.322D-01 0.954D-01 0.347D+00 0.590D+00
 Gap=     0.149 Goal=   None    Shift=    0.000
 Gap=     0.083 Goal=   None    Shift=    0.000
 RMSDP=2.48D-04 MaxDP=2.75D-02 DE=-2.16D-02 OVMax= 3.16D-02

 Cycle   5  Pass 1  IDiag  1:
 RMSU=  1.47D-04    CP:  9.57D-01  1.85D+00  8.12D-01  6.48D-01
 E= -1000.61662474294     Delta-E=       -0.007381577319 Rises=F Damp=F
 DIIS: error= 1.78D-03 at cycle   5 NSaved=   5.
 NSaved= 5 IEnMin= 5 EnMin= -1000.61662474294     IErMin= 5 ErrMin= 1.78D-03
 ErrMax= 1.78D-03  0.00D+00 EMaxC= 1.00D-01 BMatC= 2.96D-03 BMatP= 3.65D-02
 IDIUse=3 WtCom= 9.82D-01 WtEn= 1.78D-02
 Coeff-Com:  0.696D-02-0.370D-02 0.152D+00 0.323D+00 0.522D+00
 Coeff-En:   0.000D+00 0.000D+00 0.000D+00 0.000D+00 0.100D+01
 Coeff:      0.684D-02-0.363D-02 0.149D+00 0.317D+00 0.530D+00
 Gap=     0.150 Goal=   None    Shift=    0.000
 Gap=     0.085 Goal=   None    Shift=    0.000
 RMSDP=7.77D-05 MaxDP=1.01D-02 DE=-7.38D-03 OVMax= 1.35D-02

 Cycle   6  Pass 1  IDiag  1:
 RMSU=  5.94D-05    CP:  9.56D-01  1.85D+00  8.19D-01  7.13D-01  7.30D-01
 E= -1000.61734969812     Delta-E=       -0.000724955180 Rises=F Damp=F
 DIIS: error= 5.80D-04 at cycle   6 NSaved=   6.
 NSaved= 6 IEnMin= 6 EnMin= -1000.61734969812     IErMin= 6 ErrMin= 5.80D-04
 ErrMax= 5.80D-04  0.00D+00 EMaxC= 1.00D-01 BMatC= 4.01D-04 BMatP= 2.96D-03
 IDIUse=3 WtCom= 9.94D-01 WtEn= 5.80D-03
 Coeff-Com:  0.767D-02-0.134D-01 0.301D-01 0.723D-01 0.277D+00 0.626D+00
 Coeff-En:   0.000D+00 0.000D+00 0.000D+00 0.000D+00 0.000D+00 0.100D+01
 Coeff:      0.762D-02-0.133D-01 0.300D-01 0.719D-01 0.276D+00 0.628D+00
 Gap=     0.151 Goal=   None    Shift=    0.000
 Gap=     0.086 Goal=   None    Shift=    0.000
 RMSDP=3.43D-05 MaxDP=3.34D-03 DE=-7.25D-04 OVMax= 1.21D-02

 Cycle   7  Pass 1  IDiag  1:
 RMSU=  2.57D-05    CP:  9.56D-01  1.85D+00  8.23D-01  7.15D-01  8.81D-01
                    CP:  1.01D+00
 E= -1000.61750691938     Delta-E=       -0.000157221257 Rises=F Damp=F
 DIIS: error= 2.28D-04 at cycle   7 NSaved=   7.
 NSaved= 7 IEnMin= 7 EnMin= -1000.61750691938     IErMin= 7 ErrMin= 2.28D-04
 ErrMax= 2.28D-04  0.00D+00 EMaxC= 1.00D-01 BMatC= 8.01D-05 BMatP= 4.01D-04
 IDIUse=3 WtCom= 9.98D-01 WtEn= 2.28D-03
 Coeff-Com:  0.995D-03-0.369D-02-0.300D-01-0.705D-01-0.273D-01 0.269D+00
 Coeff-Com:  0.862D+00
 Coeff-En:   0.000D+00 0.000D+00 0.000D+00 0.000D+00 0.000D+00 0.000D+00
 Coeff-En:   0.100D+01
 Coeff:      0.993D-03-0.368D-02-0.300D-01-0.703D-01-0.272D-01 0.268D+00
 Coeff:      0.862D+00
 Gap=     0.152 Goal=   None    Shift=    0.000
 Gap=     0.088 Goal=   None    Shift=    0.000
 RMSDP=2.58D-05 MaxDP=2.70D-03 DE=-1.57D-04 OVMax= 9.51D-03

 Cycle   8  Pass 1  IDiag  1:
 RMSU=  1.37D-05    CP:  9.56D-01  1.85D+00  8.27D-01  7.26D-01  9.64D-01
                    CP:  1.29D+00  1.09D+00
 E= -1000.61757659055     Delta-E=       -0.000069671173 Rises=F Damp=F
 DIIS: error= 1.14D-04 at cycle   8 NSaved=   8.
 NSaved= 8 IEnMin= 8 EnMin= -1000.61757659055     IErMin= 8 ErrMin= 1.14D-04
 ErrMax= 1.14D-04  0.00D+00 EMaxC= 1.00D-01 BMatC= 2.29D-05 BMatP= 8.01D-05
 IDIUse=3 WtCom= 9.99D-01 WtEn= 1.14D-03
 Coeff-Com: -0.193D-02 0.299D-02-0.201D-01-0.529D-01-0.912D-01-0.102D+00
 Coeff-Com:  0.391D+00 0.874D+00
 Coeff-En:   0.000D+00 0.000D+00 0.000D+00 0.000D+00 0.000D+00 0.000D+00
 Coeff-En:   0.000D+00 0.100D+01
 Coeff:     -0.193D-02 0.298D-02-0.201D-01-0.528D-01-0.911D-01-0.102D+00
 Coeff:      0.391D+00 0.874D+00
 Gap=     0.152 Goal=   None    Shift=    0.000
 Gap=     0.088 Goal=   None    Shift=    0.000
 RMSDP=1.67D-05 MaxDP=2.05D-03 DE=-6.97D-05 OVMax= 6.04D-03

 Cycle   9  Pass 1  IDiag  1:
 RMSU=  6.91D-06    CP:  9.56D-01  1.85D+00  8.28D-01  7.29D-01  1.02D+00
                    CP:  1.43D+00  1.44D+00  1.19D+00
 E= -1000.61759606871     Delta-E=       -0.000019478156 Rises=F Damp=F
 DIIS: error= 6.02D-05 at cycle   9 NSaved=   9.
 NSaved= 9 IEnMin= 9 EnMin= -1000.61759606871     IErMin= 9 ErrMin= 6.02D-05
 ErrMax= 6.02D-05  0.00D+00 EMaxC= 1.00D-01 BMatC= 6.49D-06 BMatP= 2.29D-05
 IDIUse=1 WtCom= 1.00D+00 WtEn= 0.00D+00
 Coeff-Com: -0.896D-03 0.171D-02-0.559D-02-0.162D-01-0.430D-01-0.109D+00
 Coeff-Com:  0.677D-01 0.475D+00 0.630D+00
 Coeff:     -0.896D-03 0.171D-02-0.559D-02-0.162D-01-0.430D-01-0.109D+00
 Coeff:      0.677D-01 0.475D+00 0.630D+00
 Gap=     0.152 Goal=   None    Shift=    0.000
 Gap=     0.088 Goal=   None    Shift=    0.000
 RMSDP=5.65D-06 MaxDP=8.03D-04 DE=-1.95D-05 OVMax= 1.62D-03

 Cycle  10  Pass 1  IDiag  1:
 RMSU=  3.41D-06    CP:  9.56D-01  1.85D+00  8.29D-01  7.29D-01  1.03D+00
                    CP:  1.47D+00  1.52D+00  1.38D+00  8.57D-01
 E= -1000.61759925765     Delta-E=       -0.000003188942 Rises=F Damp=F
 DIIS: error= 2.89D-05 at cycle  10 NSaved=  10.
 NSaved=10 IEnMin=10 EnMin= -1000.61759925765     IErMin=10 ErrMin= 2.89D-05
 ErrMax= 2.89D-05  0.00D+00 EMaxC= 1.00D-01 BMatC= 1.21D-06 BMatP= 6.49D-06
 IDIUse=1 WtCom= 1.00D+00 WtEn= 0.00D+00
 Coeff-Com:  0.114D-03-0.369D-04 0.253D-02 0.606D-02 0.398D-02-0.250D-01
 Coeff-Com: -0.596D-01-0.165D-01 0.300D+00 0.788D+00
 Coeff:      0.114D-03-0.369D-04 0.253D-02 0.606D-02 0.398D-02-0.250D-01
 Coeff:     -0.596D-01-0.165D-01 0.300D+00 0.788D+00
 Gap=     0.153 Goal=   None    Shift=    0.000
 Gap=     0.088 Goal=   None    Shift=    0.000
 RMSDP=2.81D-06 MaxDP=5.47D-04 DE=-3.19D-06 OVMax= 8.01D-04

 Cycle  11  Pass 1  IDiag  1:
 RMSU=  1.48D-06    CP:  9.56D-01  1.85D+00  8.29D-01  7.29D-01  1.04D+00
                    CP:  1.47D+00  1.56D+00  1.46D+00  1.11D+00  1.04D+00
 E= -1000.61759992021     Delta-E=       -0.000000662563 Rises=F Damp=F
 DIIS: error= 1.81D-05 at cycle  11 NSaved=  11.
 NSaved=11 IEnMin=11 EnMin= -1000.61759992021     IErMin=11 ErrMin= 1.81D-05
 ErrMax= 1.81D-05  0.00D+00 EMaxC= 1.00D-01 BMatC= 3.56D-07 BMatP= 1.21D-06
 IDIUse=1 WtCom= 1.00D+00 WtEn= 0.00D+00
 Coeff-Com:  0.262D-03-0.373D-03 0.296D-02 0.763D-02 0.128D-01 0.113D-01
 Coeff-Com: -0.492D-01-0.119D+00 0.442D-01 0.451D+00 0.639D+00
 Coeff:      0.262D-03-0.373D-03 0.296D-02 0.763D-02 0.128D-01 0.113D-01
 Coeff:     -0.492D-01-0.119D+00 0.442D-01 0.451D+00 0.639D+00
 Gap=     0.153 Goal=   None    Shift=    0.000
 Gap=     0.088 Goal=   None    Shift=    0.000
 RMSDP=1.08D-06 MaxDP=1.59D-04 DE=-6.63D-07 OVMax= 3.80D-04

 Cycle  12  Pass 1  IDiag  1:
 RMSU=  5.70D-07    CP:  9.56D-01  1.85D+00  8.29D-01  7.29D-01  1.04D+00
                    CP:  1.47D+00  1.57D+00  1.49D+00  1.16D+00  1.22D+00
                    CP:  8.27D-01
 E= -1000.61760007654     Delta-E=       -0.000000156325 Rises=F Damp=F
 DIIS: error= 3.44D-06 at cycle  12 NSaved=  12.
 NSaved=12 IEnMin=12 EnMin= -1000.61760007654     IErMin=12 ErrMin= 3.44D-06
 ErrMax= 3.44D-06  0.00D+00 EMaxC= 1.00D-01 BMatC= 3.32D-08 BMatP= 3.56D-07
 IDIUse=1 WtCom= 1.00D+00 WtEn= 0.00D+00
 Coeff-Com:  0.405D-04-0.931D-04 0.245D-03 0.838D-03 0.233D-02 0.826D-02
 Coeff-Com: -0.407D-02-0.296D-01-0.405D-01-0.433D-01 0.194D+00 0.911D+00
 Coeff:      0.405D-04-0.931D-04 0.245D-03 0.838D-03 0.233D-02 0.826D-02
 Coeff:     -0.407D-02-0.296D-01-0.405D-01-0.433D-01 0.194D+00 0.911D+00
 Gap=     0.153 Goal=   None    Shift=    0.000
 Gap=     0.088 Goal=   None    Shift=    0.000
 RMSDP=5.43D-07 MaxDP=9.03D-05 DE=-1.56D-07 OVMax= 1.32D-04

 Cycle  13  Pass 1  IDiag  1:
 RMSU=  2.56D-07    CP:  9.56D-01  1.85D+00  8.29D-01  7.29D-01  1.04D+00
                    CP:  1.48D+00  1.57D+00  1.50D+00  1.20D+00  1.27D+00
                    CP:  9.91D-01  1.12D+00
 E= -1000.61760010175     Delta-E=       -0.000000025213 Rises=F Damp=F
 DIIS: error= 2.17D-06 at cycle  13 NSaved=  13.
 NSaved=13 IEnMin=13 EnMin= -1000.61760010175     IErMin=13 ErrMin= 2.17D-06
 ErrMax= 2.17D-06  0.00D+00 EMaxC= 1.00D-01 BMatC= 7.21D-09 BMatP= 3.32D-08
 IDIUse=1 WtCom= 1.00D+00 WtEn= 0.00D+00
 Coeff-Com: -0.290D-04 0.268D-04-0.296D-03-0.646D-03-0.834D-03 0.244D-02
 Coeff-Com:  0.448D-02 0.338D-02-0.226D-01-0.799D-01 0.880D-02 0.375D+00
 Coeff-Com:  0.710D+00
 Coeff:     -0.290D-04 0.268D-04-0.296D-03-0.646D-03-0.834D-03 0.244D-02
 Coeff:      0.448D-02 0.338D-02-0.226D-01-0.799D-01 0.880D-02 0.375D+00
 Coeff:      0.710D+00
 Gap=     0.153 Goal=   None    Shift=    0.000
 Gap=     0.088 Goal=   None    Shift=    0.000
 RMSDP=1.81D-07 MaxDP=2.05D-05 DE=-2.52D-08 OVMax= 3.80D-05

 Cycle  14  Pass 1  IDiag  1:
 RMSU=  1.09D-07    CP:  9.56D-01  1.85D+00  8.29D-01  7.29D-01  1.04D+00
                    CP:  1.48D+00  1.57D+00  1.51D+00  1.21D+00  1.29D+00
                    CP:  1.03D+00  1.29D+00  1.00D+00
 E= -1000.61760010529     Delta-E=       -0.000000003542 Rises=F Damp=F
 DIIS: error= 1.63D-06 at cycle  14 NSaved=  14.
 NSaved=14 IEnMin=14 EnMin= -1000.61760010529     IErMin=14 ErrMin= 1.63D-06
 ErrMax= 1.63D-06  0.00D+00 EMaxC= 1.00D-01 BMatC= 2.15D-09 BMatP= 7.21D-09
 IDIUse=1 WtCom= 1.00D+00 WtEn= 0.00D+00
 Coeff-Com: -0.272D-04 0.421D-04-0.193D-03-0.476D-03-0.103D-02-0.807D-03
 Coeff-Com:  0.264D-02 0.918D-02-0.280D-03-0.270D-01-0.434D-01-0.789D-01
 Coeff-Com:  0.366D+00 0.774D+00
 Coeff:     -0.272D-04 0.421D-04-0.193D-03-0.476D-03-0.103D-02-0.807D-03
 Coeff:      0.264D-02 0.918D-02-0.280D-03-0.270D-01-0.434D-01-0.789D-01
 Coeff:      0.366D+00 0.774D+00
 Gap=     0.153 Goal=   None    Shift=    0.000
 Gap=     0.088 Goal=   None    Shift=    0.000
 RMSDP=1.05D-07 MaxDP=1.03D-05 DE=-3.54D-09 OVMax= 2.93D-05

 Cycle  15  Pass 1  IDiag  1:
 RMSU=  4.72D-08    CP:  9.56D-01  1.85D+00  8.29D-01  7.29D-01  1.04D+00
                    CP:  1.48D+00  1.57D+00  1.51D+00  1.21D+00  1.29D+00
                    CP:  1.05D+00  1.36D+00  1.22D+00  9.81D-01
 E= -1000.61760010645     Delta-E=       -0.000000001159 Rises=F Damp=F
 DIIS: error= 7.87D-07 at cycle  15 NSaved=  15.
 NSaved=15 IEnMin=15 EnMin= -1000.61760010645     IErMin=15 ErrMin= 7.87D-07
 ErrMax= 7.87D-07  0.00D+00 EMaxC= 1.00D-01 BMatC= 2.88D-10 BMatP= 2.15D-09
 IDIUse=1 WtCom= 1.00D+00 WtEn= 0.00D+00
 Coeff-Com: -0.678D-05 0.128D-04-0.292D-04-0.721D-04-0.280D-03-0.626D-03
 Coeff-Com:  0.159D-03 0.297D-02 0.310D-02 0.204D-02-0.163D-01-0.913D-01
 Coeff-Com:  0.365D-01 0.294D+00 0.770D+00
 Coeff:     -0.678D-05 0.128D-04-0.292D-04-0.721D-04-0.280D-03-0.626D-03
 Coeff:      0.159D-03 0.297D-02 0.310D-02 0.204D-02-0.163D-01-0.913D-01
 Coeff:      0.365D-01 0.294D+00 0.770D+00
 Gap=     0.153 Goal=   None    Shift=    0.000
 Gap=     0.088 Goal=   None    Shift=    0.000
 RMSDP=4.25D-08 MaxDP=3.89D-06 DE=-1.16D-09 OVMax= 9.55D-06

 Cycle  16  Pass 1  IDiag  1:
 RMSU=  2.56D-08    CP:  9.56D-01  1.85D+00  8.29D-01  7.29D-01  1.04D+00
                    CP:  1.48D+00  1.57D+00  1.51D+00  1.21D+00  1.29D+00
                    CP:  1.05D+00  1.38D+00  1.30D+00  1.13D+00  1.03D+00
 E= -1000.61760010661     Delta-E=       -0.000000000157 Rises=F Damp=F
 DIIS: error= 6.33D-07 at cycle  16 NSaved=  16.
 NSaved=16 IEnMin=16 EnMin= -1000.61760010661     IErMin=16 ErrMin= 6.33D-07
 ErrMax= 6.33D-07  0.00D+00 EMaxC= 1.00D-01 BMatC= 1.49D-10 BMatP= 2.88D-10
 IDIUse=1 WtCom= 1.00D+00 WtEn= 0.00D+00
 Coeff-Com:  0.269D-05-0.292D-05 0.310D-04 0.809D-04 0.886D-04-0.178D-03
[...]
 28416,-0.00008525,-0.00006642,-0.00002216,-0.00000021,-0.00013806,-0.0
 0002806,-0.00005982,-0.00000122,-0.00048027,0.00001176,-0.00034341,0.0
 0058531,0.00046983,-0.00069861,-0.00008193,0.00010682,-0.00001085,-0.0
 0005312,-0.00000660,0.00041335,-0.00055723,-0.00020106,0.00004688,-0.0
 0000749,0.00003422,0.00063040,-0.00039235,-0.00107403,0.00012324,-0.00
 008838,0.00009327,-0.00001015,0.00000081,-0.00000164,0.00000398,0.0000
 0496,-0.00000225,-0.00001153,-0.00000359,-0.00001695,-0.00000407,-0.00
 000540,0.00000383,-0.00000586,0.00000126,0.00000564,0.00000069,0.00000
 152,0.00000243,-0.00000229,-0.00000137,0.00000564,-0.00000099,0.000000
 84,0.00000342,-0.00000447,0.00000192,-0.00000349,-0.00000252,-0.000005
 21,-0.00000180,0.00000398,0.00000391,-0.00002430,0.00002828,0.00005309
 ,0.00005072,0.00000259,-0.00001133,-0.00001583,-0.00001856,0.00000167,
 0.00000242,0.00038236,0.00136406,0.00103054,0.00005910,-0.00022733,0.0
 0005569,-0.00034203,-0.00001124,-0.00011764,0.00001051,-0.00016481,0.0
 0028037,0.00040390,-0.00078445,0.00066961,0.00006540,0.00012590,0.0002
 2905,0.00004828,-0.00001762,0.00001505,-0.00018946,0.00008365,-0.00006
 311,-0.09036727,0.07534508,-0.24316001,-0.01039933,0.00804390,-0.01924
 182,0.09997372,-0.08263651,0.26156038,0.00001659,-0.00006794,0.0000045
 5,-0.00004374,-0.00005750,-0.00000076,-0.00001157,0.00004706,-0.000003
 38,-0.00005881,-0.00002946,-0.00000353,0.00004626,-0.00004555,0.000006
 37,0.00002470,0.00004028,-0.00000011,-0.00000525,0.00015309,0.00000108
 ,0.00000324,-0.00000088,0.00000041,-0.00000039,-0.00000394,0.00000009,
 -0.00000073,-0.00000368,0.00000005,0.00002362,-0.00000634,0.00000143,-
 0.00022301,0.00048486,-0.00004295,-0.00003941,-0.00013580,-0.00000262,
 -0.00010693,-0.00012001,-0.00000488,0.00030342,-0.00011271,0.00001998,
 -0.00049375,0.00036674,-0.00006230,0.00073716,0.00021428,0.00004667,-0
 .00001729,-0.00004833,0.00000005,0.00028286,-0.00058994,0.00004660,0.0
 0002160,-0.00005631,0.00000255,-0.00043416,0.00098688,0.00006506,0.000
 27150,-0.00021825,0.00002679,-0.00002680,0.00000027,-0.00000429,0.0000
 2019,0.00000648,0.00000150,-0.00000924,0.00002680,-0.00003718,0.000000
 48,-0.00000504,0.00000127,-0.00001707,0.00000162,0.00001629,0.00000382
 ,0.00000025,0.00000241,-0.00001295,0.00002750,0.00003396,0.00000342,0.
 00000005,-0.00000312,-0.00001590,0.00000159,-0.00001729,0.00000085,-0.
 00000482,-0.00000141,-0.00001657,0.00000359,0.00000437,0.00000986,-0.0
 0001127,0.00001993,0.00001170,-0.00001286,-0.00002051,-0.00002192,0.00
 000803,-0.00000268,0.00013228,0.00075830,-0.00025207,0.00061846,-0.000
 09073,0.00047447,0.00035423,0.00002446,0.00007275,0.00000781,-0.000036
 12,-0.00002798,0.00029229,0.00088741,0.00023920,0.00035985,0.00000954,
 -0.00000711,0.00045384,-0.00006014,-0.00050123,0.00000605,-0.00002559,
 0.00003350,-0.29008530,-0.08333276,-0.01555918,-0.01398564,-0.00481574
 ,-0.00180616,-0.01042819,-0.00338929,0.00015865,0.31205245,-0.00000476
 ,-0.00008028,0.00000421,-0.00004961,-0.00005853,-0.00000075,-0.0000155
 0,0.00005245,-0.00000398,-0.00006726,-0.00003534,-0.00000394,0.0000512
 1,-0.00005433,0.00000717,0.00003328,0.00004082,0.00000105,-0.00019553,
 0.00017617,-0.00002718,0.00000417,-0.00000178,0.00000057,-0.00000067,-
 0.00000493,0.00000010,-0.00000047,-0.00000516,0.00000002,0.00001817,-0
 .00000824,0.00000147,-0.00210881,0.00018332,-0.00013985,0.00003974,-0.
 00070647,0.00000825,0.00011279,-0.00010142,0.00001242,0.00019319,0.000
 45995,0.00001137,0.00060289,-0.00046768,0.00003450,0.00180523,-0.00641
 620,0.00033916,-0.00001901,0.00002480,-0.00000180,-0.00000649,0.000405
 12,-0.00001472,-0.00004743,-0.00006122,0.00000242,-0.03068995,-0.01299
 039,-0.00193281,0.00027937,-0.00009214,0.00002004,-0.00002953,-0.00007
 382,-0.00000169,0.00002600,0.00000127,0.00000161,-0.00000980,0.0000367
 6,-0.00003865,0.00000516,0.00000070,-0.00000234,-0.00001406,0.00000055
 ,0.00001652,0.00000266,-0.00000009,0.00000455,-0.00001109,0.00003740,0
 .00003329,0.00000233,-0.00000032,-0.00000491,-0.00001268,0.00000061,-0
 .00001664,0.00000551,0.00000116,0.00000261,-0.00004412,-0.00000319,-0.
 00000253,-0.00000076,0.00000295,-0.00000240,-0.00000302,0.00000270,0.0
 0000192,-0.00000029,0.00001169,-0.00000012,-0.00097302,0.00128216,-0.0
 0090761,0.00065738,0.00022588,0.00033049,0.00022377,0.00025884,-0.0003
 4228,0.00010227,-0.00001966,0.00010220,-0.00153640,0.00098168,0.000484
 11,0.00017703,0.00029634,0.00035061,0.00079238,0.00015565,-0.00047509,
 0.00011405,-0.00002492,-0.00007910,-0.08109870,-0.07381277,-0.00552938
 ,0.01200722,0.00392710,0.00193775,0.01049463,0.00307381,-0.00035205,0.
 08918647,0.08329502,0.00000112,-0.00000246,0.00000593,-0.00000193,-0.0
 0000252,0.00000030,-0.00000026,0.00000175,-0.00000069,-0.00000221,-0.0
 0000097,0.,0.00000183,-0.00000161,-0.00000042,0.00000053,0.00000175,0.
 00000237,0.00000976,0.00000241,-0.00004635,0.00000007,0.,0.00000028,-0
 .00000002,-0.00000011,0.00000016,0.,-0.00000012,-0.00000052,0.00000088
 ,0.00000071,0.00000072,0.00001744,0.00004188,0.00037509,-0.00000420,0.
 00001592,-0.00003476,0.00000087,-0.00001257,-0.00003666,0.00002075,0.0
 0000592,0.00011071,-0.00005744,0.00004783,0.00039225,-0.00002665,0.000
 18352,0.00028831,0.00000070,-0.00000234,-0.00001310,0.00000915,-0.0000
 5783,-0.00043112,-0.00000085,-0.00000113,0.00002466,0.00114366,0.00043
 335,-0.00158779,0.00001821,-0.00001613,-0.00002798,-0.00000046,0.00000
 332,0.00000036,0.00000070,0.00000021,-0.00000247,-0.00000497,0.0000008
 5,-0.00000442,-0.00000046,-0.00000030,0.00000097,-0.00000122,-0.000000
 51,0.00000181,0.00000012,-0.00000007,0.00000120,0.00000492,0.00000073,
 -0.00000131,0.00000013,0.00000011,0.00000114,-0.00000006,0.00000048,0.
 00000066,0.00000012,-0.00000030,0.00000062,0.00000002,0.00000039,-0.00
 001539,0.00000617,-0.00000504,0.00000630,-0.00000652,0.00000329,0.0000
 0242,-0.00000128,0.00000020,0.00000520,0.00056498,0.00039575,0.0001183
 2,-0.00011109,0.00007731,0.00021430,0.00002609,-0.00012663,-0.00005231
 ,0.00003241,0.00003437,-0.00001386,-0.00065835,-0.00058334,-0.00011031
 ,0.00002907,0.00010306,-0.00008945,0.00006626,-0.00041623,0.00012531,-
 0.00002952,-0.00004059,-0.00000924,-0.01552068,-0.00555051,-0.04837022
 ,0.02339523,0.00886396,0.00232315,-0.02600501,-0.00957157,-0.00055785,
 0.01708251,0.00617388,0.04740398,-0.01405515,0.00489636,-0.00170037,0.
 00085155,-0.00261507,-0.00032007,0.00022136,-0.00023772,0.00008443,0.0
 0144849,0.00152252,-0.00062100,-0.00561564,-0.00048519,-0.00080645,-0.
 34397998,0.04298403,-0.02868544,-0.00059300,-0.00022134,0.00000458,-0.
 00007872,0.00005744,0.00009842,-0.00034400,-0.00010217,-0.00004122,0.0
 0014782,0.00005128,0.00061151,-0.00092667,0.00004964,-0.00009593,-0.00
 002976,-0.00007282,-0.00000458,0.00002262,0.00017773,-0.00001186,0.000
 03862,-0.00020960,0.00000896,0.00006193,0.00017586,0.00000440,-0.00010
 586,0.00000748,-0.00000692,0.00007093,-0.00000835,0.00000572,0.0000001
 8,0.00000660,-0.00000055,-0.00000160,-0.00000393,-0.00000006,0.0000058
 7,0.00001622,-0.00000309,0.00000108,0.00001443,-0.00000061,-0.00007645
 ,-0.00008148,-0.00000172,0.00131670,0.00091940,0.00030910,-0.00069673,
 -0.00062700,0.00011907,0.00000620,-0.00001817,0.00001718,-0.00000313,0
 .00000125,0.00000214,0.00000611,-0.00000186,-0.00000842,-0.00000085,0.
 00000006,-0.00000191,0.00000577,-0.00001785,-0.00001522,-0.00000097,0.
 00000008,0.00000209,0.00000549,-0.00000150,0.00000819,-0.00000270,0.00
 000118,-0.00000223,0.00001304,0.00000013,0.00000047,-0.00000150,-0.000
 00015,-0.00000087,-0.00000132,0.00000018,0.00000095,0.00000176,-0.0000
 0591,0.00000025,-0.00000722,-0.00001088,0.00001519,-0.00000600,0.00000
 042,-0.00000700,0.00000338,0.00000008,0.00000250,0.00000162,-0.0000013
 5,-0.00000131,-0.00000525,-0.00001230,-0.00001509,0.00000419,0.0000000
 5,-0.00000195,-0.00000688,0.00000068,0.00000591,0.00000151,-0.00000113
 ,0.00000167,-0.00001104,0.00000622,-0.00000095,0.00000189,-0.00000018,
 0.00000077,0.00000186,-0.00000035,-0.00000037,-0.00000332,-0.00000460,
 -0.00000012,0.36210636,-0.02570025,0.00775400,-0.00245413,-0.00127988,
 -0.00355204,0.00035988,-0.00020441,-0.00096963,-0.00000278,0.00080042,
 -0.00489279,0.00074170,0.02915899,0.00150684,0.00247859,0.04294527,-0.
 06678372,0.00519152,-0.00047266,0.00034133,-0.00007360,0.00004963,0.00
 022404,-0.00007583,0.00143652,-0.00007761,0.00013823,-0.00037679,0.001
 46663,-0.00028605,-0.00188685,-0.00016668,-0.00014087,-0.00008791,0.00
 004914,-0.00000781,0.00007076,0.00005362,0.00000986,0.00000271,-0.0000
 3050,0.00000023,0.00000436,0.00000564,0.00000073,0.00000458,-0.0000043
 2,0.00000024,0.00000649,-0.00000229,-0.00000025,0.00000340,-0.00000160
 ,-0.00000011,0.00000105,-0.00000088,0.00000026,0.00000062,0.00000083,-
 0.00000030,0.00000079,0.00000151,-0.00000010,-0.00001437,-0.00017567,0
 .00000505,0.00118543,0.00228585,-0.00014576,0.00024509,-0.00037343,-0.
 00002151,-0.00000060,-0.00000519,0.00000184,-0.00000141,-0.00000112,-0
 .00000006,0.00000024,0.00000028,-0.00000116,0.00000048,0.00000036,0.00
 000020,-0.00000065,-0.00000532,-0.00000160,0.00000051,0.00000030,-0.00
 000019,0.00000016,0.00000034,0.00000110,-0.00000144,-0.00000105,-0.000
 00002,0.00000179,-0.00000055,0.00000011,0.00000021,0.00000035,-0.00000
 046,0.00000019,0.00000039,0.00000045,-0.00000017,-0.00000056,0.0000000
 1,-0.00000084,0.00000061,-0.00000060,0.00000024,-0.00000062,-0.0000001
 0,0.00000092,-0.00000053,0.00000125,-0.00000010,-0.00000051,-0.0000004
 0,-0.00000096,0.00000092,0.00000041,0.00000117,-0.00000072,-0.00000094
 ,0.00000024,-0.00000067,0.00000015,-0.00000013,-0.00000045,0.00000036,
 -0.00000017,0.00000021,-0.00000006,-0.00000002,-0.00000031,-0.00000020
 ,-0.00000007,-0.00000028,0.00000020,0.00000030,-0.00000013,0.00000004,
 -0.04603854,0.06355819,0.00004857,0.00021363,0.00290889,-0.00041061,0.
 00027126,0.00582316,0.00008594,-0.00003672,-0.00062990,-0.00053191,0.0
 0080693,0.00761884,-0.00239056,0.00000686,0.00268999,-0.02885438,0.004
 93159,-0.03803463,-0.00000058,-0.00005131,-0.00038875,0.00009994,-0.00
 007551,-0.00123912,-0.00011843,0.00000390,0.00016961,0.00063350,-0.000
 23407,-0.00458748,0.00000959,0.00002561,0.00016987,-0.00000095,-0.0000
 0407,0.00002313,-0.00001072,0.00001561,0.00007735,0.00000471,-0.000013
 11,-0.00001242,0.00000257,0.00001012,0.00000961,-0.00000597,0.00000015
 ,-0.00000487,0.00000359,-0.00000155,-0.00001080,-0.00000064,0.00000055
 ,-0.00000211,-0.00000040,-0.00000017,0.00000359,0.00000022,0.00000097,
 0.00000193,0.00000041,0.00000066,-0.00000304,-0.00000259,0.00000033,-0
 .00000077,0.00030745,-0.00012421,-0.00265262,0.00009266,-0.00000437,-0
 .00007519,-0.00000056,-0.00000232,0.00000111,-0.00000021,-0.00000011,0
 .00000176,0.00000041,0.00000015,-0.00000040,-0.00000041,-0.00000064,-0
 .00000085,0.00000123,0.00000012,-0.00000066,0.00000043,0.00000074,-0.0
 0000067,0.00000028,-0.00000043,0.00000055,-0.00000024,0.00000045,0.000
 00169,0.00000079,0.,-0.00000050,0.00000050,0.00000050,-0.00000046,-0.0
 0000064,-0.00000046,-0.00000034,0.00000011,-0.00000035,0.00000016,-0.0
 0000190,-0.00000365,0.00000121,-0.00000030,0.00000011,-0.00000101,0.00
 000070,0.00000114,0.00000115,0.00000023,-0.00000024,-0.00000090,0.0000
 0108,0.00000263,-0.00000044,-0.00000055,-0.00000123,0.00000099,-0.0000
 0027,-0.00000012,-0.00000033,0.00000005,0.00000003,-0.00000076,-0.0000
 0050,0.00000030,-0.00000084,0.00000025,-0.00000028,-0.00000013,-0.0000
 0002,0.00000022,-0.00000022,-0.00000020,-0.00000022,0.00000029,0.03104
 907,-0.00574967,0.02792240,0.00259048,-0.00052439,-0.00000858,0.003633
 86,-0.00718573,0.00114935,0.00073164,0.00153076,0.00008731,-0.00139603
 ,-0.00017841,-0.00011270,0.00083831,-0.00031180,0.00011507,0.00050007,
 0.00033773,-0.00004059,-0.02052906,-0.00080126,-0.00140448,-0.00064992
 ,-0.00024092,-0.00006886,0.00005642,0.00013115,-0.00001205,0.00002488,
 0.00006414,-0.00000267,-0.40204315,-0.07491192,-0.03036420,0.00626137,
 0.00049070,0.00045687,0.00044224,-0.00037817,0.00022056,-0.00081519,-0
 .00015826,-0.00001973,0.00051837,0.00014846,0.00000193,-0.00062635,0.0
 0044415,-0.00004776,-0.00077589,0.00035874,-0.00015015,-0.00011842,0.0
 0008477,-0.00000142,-0.00013561,0.00007593,0.00000399,-0.00016957,-0.0
 0007207,-0.00000045,-0.00011711,-0.00011685,-0.00000943,-0.01096546,0.
 00253668,-0.00077324,0.00451408,0.00352860,-0.00005607,-0.00009585,0.0
 0003144,-0.00020164,0.00000867,0.00006574,-0.00003562,-0.00001298,-0.0
 0001674,0.00000336,-0.00001081,-0.00001554,0.00001446,0.00000222,-0.00
 000274,-0.00000062,0.00001069,0.00006135,0.00002769,0.00000118,-0.0000
 0241,0.00000033,-0.00000897,-0.00001505,-0.00001303,-0.00001352,-0.000
 01611,-0.00000366,0.00001847,-0.00001884,0.00000145,0.00000259,-0.0000
 0321,0.00000467,0.00000177,-0.00000306,-0.00000495,-0.00000644,-0.0000
 1048,-0.00000032,0.00002523,-0.00006778,0.00003981,-0.00000279,0.00003
 966,-0.00000181,-0.00005061,0.00001676,-0.00006449,-0.00000129,0.00001
 875,0.00001836,0.00003047,-0.00007330,-0.00002660,-0.00006413,0.000017
 09,0.00004936,-0.00000251,0.00004117,-0.00000092,0.00000013,0.00001466
 ,-0.00001692,0.00000237,0.00000361,0.00000308,0.00000009,0.00001417,0.
 00000659,0.00000146,0.00001241,-0.00000687,-0.00000058,0.00000664,-0.0
 0000041,0.00020739,0.00014568,-0.00001078,0.41818780,-0.00027690,-0.00
 660174,0.00037601,-0.02257423,0.00008013,-0.00230403,0.00084750,0.0018
 2253,-0.00002005,-0.00078000,-0.00007097,-0.00006331,0.00048501,-0.000
 24552,0.00004321,-0.00075963,0.00112643,-0.00008820,0.02134570,0.01936
 004,0.00112744,0.00029015,-0.00053351,-0.00000274,0.00003611,0.0000361
 6,0.00000568,0.00003030,0.00000837,0.00000240,-0.08348328,-0.08695217,
 -0.00390679,0.01062410,-0.00713914,0.00106106,-0.00085726,-0.00087502,
 -0.00020176,-0.00090413,0.00097666,-0.00008943,0.00044195,-0.00077223,
 0.00000818,-0.00051078,0.00066543,-0.00005692,-0.00151644,0.00054995,-
 0.00005145,-0.00032908,0.00014850,-0.00001866,-0.00020117,0.00018806,-
 0.00001948,-0.00028286,-0.00024528,0.00003594,-0.00022963,-0.00043492,
 -0.00000633,-0.00625537,0.00960168,-0.00113197,0.00947547,-0.00348380,
 0.00103939,0.00065844,0.00155128,0.00010161,-0.00004933,0.00027710,-0.
 00025088,0.00002523,-0.00001740,-0.00001758,-0.00008690,-0.00000307,0.
 00011160,0.00001599,-0.00000100,0.00002473,-0.00004743,0.00026711,0.00
 021526,0.00001493,-0.00000190,-0.00002674,-0.00007699,-0.00000407,-0.0
 0010797,0.00002336,-0.00001530,0.00001734,-0.00012934,-0.00003979,-0.0
 0000317,0.00002501,-0.00000139,0.00001278,0.00002250,-0.00000430,-0.00
 001279,-0.00003091,0.00005522,-0.00000368,0.00017972,0.00007195,-0.000
 09160,0.00007978,0.00009976,0.00009862,-0.00020101,0.00006524,-0.00021
 700,-0.00001632,0.00005447,0.00005287,0.00019196,0.00008399,0.00011187
 ,-0.00025654,0.00007666,0.00017676,0.00009174,0.00010183,-0.00009430,-
 0.00001279,0.00004551,-0.00005646,0.00016283,-0.00007051,0.00001386,-0
 .00002045,0.00002227,-0.00000487,-0.00001836,0.00002417,-0.00000021,0.
 00004512,0.00008413,-0.00000008,-0.00010986,-0.00020218,0.00001026,0.0
 7490408,0.07027059,0.00001792,0.00031496,0.00288959,0.00179266,-0.0009
 3302,-0.00499054,0.00007889,0.00000379,-0.00132771,-0.00008876,-0.0000
 0628,0.00002770,0.00007647,-0.00003309,-0.00030550,0.00000031,0.000022
 04,0.00081020,-0.00252934,-0.00086894,-0.00308474,-0.00005954,-0.00004
 655,-0.00045173,-0.00000554,0.00001496,0.00010478,-0.00000126,0.000006
 34,0.00002140,-0.02984532,-0.00316737,-0.01787029,0.00013161,0.0002313
 3,0.00004906,0.00028792,-0.00002312,-0.00253941,-0.00001795,-0.0000636
 0,-0.00027690,0.00001796,0.00004533,0.00026809,-0.00003756,0.00001488,
 -0.00003411,-0.00009837,0.00001903,0.00112031,0.00000785,0.00000201,-0
 .00007333,0.00000519,-0.00000139,-0.00013487,-0.00000618,0.00000171,0.
 00001483,-0.00000271,0.00000533,-0.00000996,-0.00044835,-0.00035576,-0
 .00294604,-0.00031172,0.00061899,0.00339881,-0.00022737,0.00000302,0.0
 0216507,0.00000697,-0.00000646,0.00000690,0.00000004,-0.00000016,0.000
 00214,0.00000183,-0.00000036,-0.00000457,-0.00000100,-0.00000254,-0.00
 000352,-0.00000191,-0.00000073,-0.00000333,0.00000036,0.00000177,-0.00
 000179,0.00000173,-0.00000209,0.00000063,-0.00000378,-0.00000129,0.000
 00017,0.00000625,-0.00000085,-0.00000380,-0.00000014,0.00000238,-0.000
 00061,-0.00000079,-0.00000276,-0.00000025,0.00000057,-0.00000280,-0.00
 000128,-0.00004498,-0.00003777,-0.00000882,0.00000064,-0.00000274,-0.0
 0001302,0.00001255,-0.00000742,0.00002801,0.00000037,-0.00000648,-0.00
 001152,0.00004170,0.00002066,-0.00001397,-0.00000999,0.00000575,0.0000
 2056,-0.00000531,0.00000196,-0.00000735,0.00000109,0.00000421,-0.00001
 073,-0.00000247,0.00000110,-0.00003255,0.00000097,-0.00000800,-0.00000
 075,0.00000049,0.00000851,-0.00000259,-0.00000155,-0.00000225,-0.00000
 062,0.00000275,0.00003217,0.00022293,0.03125681,0.00420157,0.02301501\
 \-0.00000822,0.00000305,0.00000331,-0.00000849,0.00000038,0.00000324,-
 0.00001115,-0.00000128,0.00000393,-0.00001301,0.00000096,0.00000491,-0
 .00001280,0.00000346,0.00000561,-0.00001024,0.00000443,0.00000505,-0.0
 0000472,0.00000099,0.00000169,-0.00001128,-0.00000294,0.00000330,-0.00
 001511,0.00000015,0.00000552,-0.00001451,0.00000485,0.00000651,-0.0000
 0581,-0.00000198,0.00000177,0.00000085,-0.00000383,-0.00000082,-0.0000
 0188,0.00000024,0.00000056,0.00000015,0.00000243,0.00000061,0.00000347
 ,0.00000171,-0.00000090,0.00000409,-0.00000068,-0.00000176,0.00000246,
 -0.00000213,-0.00000187,-0.00000042,0.00000405,0.00000129,0.00000626,-
 0.00000113,-0.00000245,0.00000464,0.00000405,0.00000043,0.00000311,-0.
 00000483,-0.00000324,-0.00000222,-0.00000394,-0.00000032,-0.00000552,0
 .00000276,0.00000312,-0.00000466,0.00000479,0.00000270,0.00000527,0.00
 000719,-0.00000085,0.00000295,0.00000744,0.00000101,0.00000628,0.00000
 852,0.00000006,0.00000599,0.00000640,-0.00000037,0.00000339,0.00000475
 ,-0.00000079,0.00000359,0.00000303,-0.00000037,0.00000502,0.00000665,0
 .00000007,0.00000166,0.00000548,0.00000097,0.00000791,0.00000358,-0.00
 000226,0.00000795,0.00000162,-0.00000248,0.00000904,0.00000291,-0.0000
 0243,0.00000910,0.00000516,-0.00000191,0.00000436,-0.00000629,-0.00000
 215,0.00000442,-0.00000781,-0.00000391,0.00000153,-0.00000584,-0.00000
 200,0.00000456,-0.00000418,-0.00000299,0.00000191,-0.00000811,-0.00000
 275,0.00000017,-0.00000853,-0.00000226,0.00000312,-0.00001024,-0.00000
 387,0.00000210,-0.00000805,-0.00000292,0.00000719,-0.00000608,-0.00000
 378,0.00000809,-0.00000386,-0.00000396,0.00000706,-0.00000541,-0.00000
 393,0.00000756,-0.00000766,-0.00000477,-0.00001004,0.00000654,0.000005
 34,-0.00000515,-0.00000278,0.00000112\\\@


 A ROPE OVER THE TOP OF A FENCE HAS THE SAME LENGTH ON EACH SIDE.
 WEIGHS 1/3 POUND PER FOOT.  ON ONE END HANGS A MONKEY HOLDING A
 BANANA, AND ON THE OTHER END A WEIGHT EQUAL TO THE WEIGHT
 OF THE MONKEY.  THE BANANA WEIGHS TWO OUNCES PER INCH.
 THE ROPE IS AS LONG AS THE AGE OF THE MONKEY, 
 AND THE WEIGHT OF THE MONKEY (IN OUNCES) IS AS MUCH
 AS THE AGE OF THE MONKEY'S MOTHER.  THE COMBINED AGES OF MONKEY
 AND MOTHER ARE THIRTY YEARS.  HALF THE WEIGHT OF THE MONKEY,
  PLUS THE WEIGHT OF THE BANANA, IS ONE FOURTH AS MUCH AS THE WEIGHT
 OF THE WEIGHT AND THE ROPE.
 THE MONKEY'S MOTHER IS HALF AS OLD AS THE MONKEY WILL BE
 WHEN IT IS 3 TIMES AS OLD AS ITS MOTHER WAS WHEN
 SHE WAS HALF AS OLD AS THE MONKEY WILL BE WHEN IT IS
 AS OLD AS ITS MOTHER WILL BE WHEN SHE IS 4 TIMES AS
 OLD AS THE MONKEY WAS WHEN IT WAS TWICE AS OLD AS 
 ITS MOTHER WAS WHEN SHE WAS ONE THIRD AS OLD AS THE
 MONKEY WAS WHEN IT WAS AS OLD AS ITS MOTHER WAS WHEN 
 SHE WAS 3 TIMES AS OLD AS THE MONKEY WAS WHEN IT WAS AS OLD AS ITS
 MOTHER WAS WHEN SHE WAS 3 TIMES AS OLD AS THE MONKEY 
 WAS WHEN IT WAS ONE FOURTH WAS OLD AS IT IS NOW.

 HOW LONG IS THE BANANA?
 Job cpu time:       0 days  6 hours 15 minutes 16.3 seconds.
 Elapsed time:       0 days  0 hours 23 minutes 48.7 seconds.
 File lengths (MBytes):  RWF=   2552 Int=      0 D2E=      0 Chk=     48 Scr=      8
 Normal termination of Gaussian 16 at Wed Mar  6 13:06:35 2019.
