 Entering Gaussian System, Link 0=g16
 Initial command:
 /gpfs/apps/hpc/Apps/Restricted/Gaussian/g16/Rev_B.01-AVX/g16/l1.exe "/gpfs/scratch60/fas/hammes_schiffer/jg2487/c23n08/Gau-7347.inp" -scrdir="/gpfs/scratch60/fas/hammes_schiffer/jg2487/c23n08/"
 Entering Link 1 = /gpfs/apps/hpc/Apps/Restricted/Gaussian/g16/Rev_B.01-AVX/g16/l1.exe PID=      7348.
  
 Copyright (c) 1988-2017, Gaussian, Inc.  All Rights Reserved.
  
 This is part of the Gaussian(R) 16 program.  It is based on
 the Gaussian(R) 09 system (copyright 2009, Gaussian, Inc.),
 the Gaussian(R) 03 system (copyright 2003, Gaussian, Inc.),
 the Gaussian(R) 98 system (copyright 1998, Gaussian, Inc.),
 the Gaussian(R) 94 system (copyright 1995, Gaussian, Inc.),
 the Gaussian 92(TM) system (copyright 1992, Gaussian, Inc.),
 the Gaussian 90(TM) system (copyright 1990, Gaussian, Inc.),
 the Gaussian 88(TM) system (copyright 1988, Gaussian, Inc.),
 the Gaussian 86(TM) system (copyright 1986, Carnegie Mellon
 University), and the Gaussian 82(TM) system (copyright 1983,
 Carnegie Mellon University). Gaussian is a federally registered
 trademark of Gaussian, Inc.
  
 This software contains proprietary and confidential information,
 including trade secrets, belonging to Gaussian, Inc.
  
 This software is provided under written license and may be
 used, copied, transmitted, or stored only in accord with that
 written license.
  
 The following legend is applicable only to US Government
 contracts under FAR:
  
                    RESTRICTED RIGHTS LEGEND
  
 Use, reproduction and disclosure by the US Government is
 subject to restrictions as set forth in subparagraphs (a)
 and (c) of the Commercial Computer Software - Restricted
 Rights clause in FAR 52.227-19.
  
 Gaussian, Inc.
 340 Quinnipiac St., Bldg. 40, Wallingford CT 06492
  
  
 ---------------------------------------------------------------
 Warning -- This program may not be used in any manner that
 competes with the business of Gaussian, Inc. or will provide
 assistance to any competitor of Gaussian, Inc.  The licensee
 of this program is prohibited from giving any competitor of
 Gaussian, Inc. access to this program.  By using this program,
 the user acknowledges that Gaussian, Inc. is engaged in the
 business of creating and licensing software in the field of
 computational chemistry and represents and warrants to the
 licensee that it is not a competitor of Gaussian, Inc. and that
 it will not use this program in any manner prohibited above.
 ---------------------------------------------------------------
  

 Cite this work as:
 Gaussian 16, Revision B.01,
 M. J. Frisch, G. W. Trucks, H. B. Schlegel, G. E. Scuseria, 
 M. A. Robb, J. R. Cheeseman, G. Scalmani, V. Barone, 
 G. A. Petersson, H. Nakatsuji, X. Li, M. Caricato, A. V. Marenich, 
 J. Bloino, B. G. Janesko, R. Gomperts, B. Mennucci, H. P. Hratchian, 
 J. V. Ortiz, A. F. Izmaylov, J. L. Sonnenberg, D. Williams-Young, 
 F. Ding, F. Lipparini, F. Egidi, J. Goings, B. Peng, A. Petrone, 
 T. Henderson, D. Ranasinghe, V. G. Zakrzewski, J. Gao, N. Rega, 
 G. Zheng, W. Liang, M. Hada, M. Ehara, K. Toyota, R. Fukuda, 
 J. Hasegawa, M. Ishida, T. Nakajima, Y. Honda, O. Kitao, H. Nakai, 
 T. Vreven, K. Throssell, J. A. Montgomery, Jr., J. E. Peralta, 
 F. Ogliaro, M. J. Bearpark, J. J. Heyd, E. N. Brothers, K. N. Kudin, 
 V. N. Staroverov, T. A. Keith, R. Kobayashi, J. Normand, 
 K. Raghavachari, A. P. Rendell, J. C. Burant, S. S. Iyengar, 
 J. Tomasi, M. Cossi, J. M. Millam, M. Klene, C. Adamo, R. Cammi, 
 J. W. Ochterski, R. L. Martin, K. Morokuma, O. Farkas, 
 J. B. Foresman, and D. J. Fox, Gaussian, Inc., Wallingford CT, 2016.
 
 ******************************************
 Gaussian 16:  ES64L-G16RevB.01 20-Dec-2017
                 6-Mar-2019 
 ******************************************
 %chk=unsub-monoBIP-E1PT.chk
 %mem=10GB
 %nprocshared=16
 Will use up to   16 processors via shared memory.
 ----------------------------------------------------------------
 #p freq(ReadFC,InternalModes) Geom(AllCheck) NoSymm scale=0.9631
 ----------------------------------------------------------------
 1/18=20,29=7,38=1,114=963100/1,3;
 2/9=110,12=2,15=1,40=1/2;
 7/8=21,25=11,30=1/16;
 99/5=2/99;
 Leave Link    1 at Wed Mar  6 13:12:34 2019, MaxMem=  1342177280 cpu:               6.7 elap:               0.5
 (Enter /gpfs/apps/hpc/Apps/Restricted/Gaussian/g16/Rev_B.01-AVX/g16/l101.exe)
 Structure from the checkpoint file:  "unsub-monoBIP-E1PT.chk"
 --------------------------------------
 Simple unsub-monoBIP E1PT optimization
 --------------------------------------
 Charge =  1 Multiplicity = 2
 Redundant internal coordinates found in file.  (old form).
 C,0,-0.4660741887,2.7397230734,0.4477723486
 C,0,-1.8540575536,2.9511176258,0.3199028304
 C,0,-2.391934243,4.2333760909,0.2079082285
 C,0,-1.4862741832,5.28750721,0.2275008069
 C,0,-0.0975366372,5.0745894723,0.3564150018
 C,0,0.4411418326,3.7981020832,0.4705396927
 C,0,-1.4894179492,0.7458974125,0.4390844796
 H,0,-3.4573671013,4.3907388582,0.1060284326
 H,0,-1.8567167546,6.3017627336,0.1425647629
 H,0,0.5664859372,5.9302694459,0.3675957737
 N,0,-2.4346503831,1.6951741289,0.321926561
 C,0,-3.1037075921,-1.1793478758,0.3496028398
 C,0,-1.7235291949,-0.6805800442,0.4532028687
 C,0,-0.666042018,-1.561581422,0.5380144582
 C,0,-0.868525976,-2.9582060426,0.5341948027
 C,0,-2.1886753579,-3.4466380046,0.4451847365
 C,0,-3.3029834616,-2.6337577353,0.3562972162
 H,0,0.3493599366,-1.1913719916,0.6031298876
 H,0,-2.330651615,-4.5155309895,0.4453467361
 C,0,0.3437911758,-3.8763373792,0.6006903324
 C,0,-4.7134529449,-3.2089947895,0.2640862916
 O,0,-4.0645710737,-0.3754109282,0.253486972
 N,0,-0.2917677258,1.3663952675,0.5219041672
 H,0,0.5958223753,0.8918896247,0.6098635801
 C,0,1.2266967391,-3.6010691245,-0.6381667031
 H,0,1.551270436,-2.5588350726,-0.674797103
 H,0,2.1173795821,-4.2331334626,-0.5972397518
 H,0,0.68598378,-3.8270080221,-1.5603158509
 C,0,1.1522043189,-3.5602189498,1.8783599733
 H,0,0.556677523,-3.747504201,2.7747226057
 H,0,2.0352935706,-4.2029756789,1.9121314033
 H,0,1.4911573416,-2.5220959174,1.8996023211
 C,0,-0.0424786406,-5.3607381646,0.6155794711
 H,0,-0.6493840802,-5.6117475722,1.4892664555
 H,0,-0.5937716708,-5.6433204104,-0.28478768
 H,0,0.8657939386,-5.9654527486,0.6545515999
 C,0,-5.3644503128,-2.7809866902,-1.0711884836
 H,0,-6.3671073542,-3.2120231356,-1.1340118557
 H,0,-5.4456350268,-1.6979172714,-1.1475125701
 H,0,-4.7823262581,-3.150539421,-1.9194027463
 C,0,-5.5603357401,-2.6969540901,1.4521652324
 H,0,-5.6634982915,-1.6136224902,1.4247825117
 H,0,-6.5554312932,-3.1470823482,1.4057983399
 H,0,-5.1005672261,-2.9818686663,2.4020348413
 C,0,-4.702021431,-4.7453076796,0.3146824036
 H,0,-4.1409244299,-5.1751429917,-0.5191301202
 H,0,-4.2718428297,-5.1161723741,1.2485582678
 H,0,-5.729839041,-5.1078601995,0.2498777887
 H,0,1.5053061407,3.6305734558,0.5712544349
 H,0,-3.413477818,1.4210640623,0.2492069472
 Recover connectivity data from disk.
 ITRead=  0  0  0  0  0  0  0  0  0  0  0  0  0  0  0  0  0  0  0  0
 ITRead=  0  0  0  0  0  0  0  0  0  0  0  0  0  0  0  0  0  0  0  0
 ITRead=  0  0  0  0  0  0  0  0  0  0
 MicOpt= -1 -1 -1 -1 -1 -1 -1 -1 -1 -1 -1 -1 -1 -1 -1 -1 -1 -1 -1 -1
 MicOpt= -1 -1 -1 -1 -1 -1 -1 -1 -1 -1 -1 -1 -1 -1 -1 -1 -1 -1 -1 -1
 MicOpt= -1 -1 -1 -1 -1 -1 -1 -1 -1 -1
 NAtoms=     50 NQM=       50 NQMF=       0 NMMI=      0 NMMIF=      0
                NMic=       0 NMicF=      0.
                    Isotopes and Nuclear Properties:
 (Nuclear quadrupole moments (NQMom) in fm**2, nuclear magnetic moments (NMagM)
  in nuclear magnetons)

  Atom         1           2           3           4           5           6           7           8           9          10
 IAtWgt=          12          12          12          12          12          12          12           1           1           1
 AtmWgt=  12.0000000  12.0000000  12.0000000  12.0000000  12.0000000  12.0000000  12.0000000   1.0078250   1.0078250   1.0078250
 NucSpn=           0           0           0           0           0           0           0           1           1           1
 AtZEff=   3.6000000   3.6000000   3.6000000   3.6000000   3.6000000   3.6000000   3.6000000   1.0000000   1.0000000   1.0000000
 NQMom=    0.0000000   0.0000000   0.0000000   0.0000000   0.0000000   0.0000000   0.0000000   0.0000000   0.0000000   0.0000000
 NMagM=    0.0000000   0.0000000   0.0000000   0.0000000   0.0000000   0.0000000   0.0000000   2.7928460   2.7928460   2.7928460
 AtZNuc=   6.0000000   6.0000000   6.0000000   6.0000000   6.0000000   6.0000000   6.0000000   1.0000000   1.0000000   1.0000000

  Atom        11          12          13          14          15          16          17          18          19          20
 IAtWgt=          14          12          12          12          12          12          12           1           1          12
 AtmWgt=  14.0030740  12.0000000  12.0000000  12.0000000  12.0000000  12.0000000  12.0000000   1.0078250   1.0078250  12.0000000
 NucSpn=           2           0           0           0           0           0           0           1           1           0
 AtZEff=   4.5500000   3.6000000   3.6000000   3.6000000   3.6000000   3.6000000   3.6000000   1.0000000   1.0000000   3.6000000
 NQMom=    2.0440000   0.0000000   0.0000000   0.0000000   0.0000000   0.0000000   0.0000000   0.0000000   0.0000000   0.0000000
 NMagM=    0.4037610   0.0000000   0.0000000   0.0000000   0.0000000   0.0000000   0.0000000   2.7928460   2.7928460   0.0000000
 AtZNuc=   7.0000000   6.0000000   6.0000000   6.0000000   6.0000000   6.0000000   6.0000000   1.0000000   1.0000000   6.0000000

  Atom        21          22          23          24          25          26          27          28          29          30
 IAtWgt=          12          16          14           1          12           1           1           1          12           1
 AtmWgt=  12.0000000  15.9949146  14.0030740   1.0078250  12.0000000   1.0078250   1.0078250   1.0078250  12.0000000   1.0078250
 NucSpn=           0           0           2           1           0           1           1           1           0           1
 AtZEff=   3.6000000   5.6000000   4.5500000   1.0000000   3.6000000   1.0000000   1.0000000   1.0000000   3.6000000   1.0000000
 NQMom=    0.0000000   0.0000000   2.0440000   0.0000000   0.0000000   0.0000000   0.0000000   0.0000000   0.0000000   0.0000000
 NMagM=    0.0000000   0.0000000   0.4037610   2.7928460   0.0000000   2.7928460   2.7928460   2.7928460   0.0000000   2.7928460
 AtZNuc=   6.0000000   8.0000000   7.0000000   1.0000000   6.0000000   1.0000000   1.0000000   1.0000000   6.0000000   1.0000000

  Atom        31          32          33          34          35          36          37          38          39          40
 IAtWgt=           1           1          12           1           1           1          12           1           1           1
 AtmWgt=   1.0078250   1.0078250  12.0000000   1.0078250   1.0078250   1.0078250  12.0000000   1.0078250   1.0078250   1.0078250
 NucSpn=           1           1           0           1           1           1           0           1           1           1
 AtZEff=   1.0000000   1.0000000   3.6000000   1.0000000   1.0000000   1.0000000   3.6000000   1.0000000   1.0000000   1.0000000
 NQMom=    0.0000000   0.0000000   0.0000000   0.0000000   0.0000000   0.0000000   0.0000000   0.0000000   0.0000000   0.0000000
 NMagM=    2.7928460   2.7928460   0.0000000   2.7928460   2.7928460   2.7928460   0.0000000   2.7928460   2.7928460   2.7928460
 AtZNuc=   1.0000000   1.0000000   6.0000000   1.0000000   1.0000000   1.0000000   6.0000000   1.0000000   1.0000000   1.0000000

  Atom        41          42          43          44          45          46          47          48          49          50
 IAtWgt=          12           1           1           1          12           1           1           1           1           1
 AtmWgt=  12.0000000   1.0078250   1.0078250   1.0078250  12.0000000   1.0078250   1.0078250   1.0078250   1.0078250   1.0078250
 NucSpn=           0           1           1           1           0           1           1           1           1           1
 AtZEff=   3.6000000   1.0000000   1.0000000   1.0000000   3.6000000   1.0000000   1.0000000   1.0000000   1.0000000   1.0000000
 NQMom=    0.0000000   0.0000000   0.0000000   0.0000000   0.0000000   0.0000000   0.0000000   0.0000000   0.0000000   0.0000000
 NMagM=    0.0000000   2.7928460   2.7928460   2.7928460   0.0000000   2.7928460   2.7928460   2.7928460   2.7928460   2.7928460
 AtZNuc=   6.0000000   1.0000000   1.0000000   1.0000000   6.0000000   1.0000000   1.0000000   1.0000000   1.0000000   1.0000000
 Leave Link  101 at Wed Mar  6 13:12:34 2019, MaxMem=  1342177280 cpu:               3.7 elap:               0.3
 (Enter /gpfs/apps/hpc/Apps/Restricted/Gaussian/g16/Rev_B.01-AVX/g16/l103.exe)

 GradGradGradGradGradGradGradGradGradGradGradGradGradGradGradGradGradGrad
 Berny optimization.
 Initialization pass.
                           ----------------------------
                           !    Initial Parameters    !
                           ! (Angstroms and Degrees)  !
 --------------------------                            --------------------------
 ! Name  Definition              Value          Derivative Info.                !
 --------------------------------------------------------------------------------
 ! R1    R(1,2)                  1.4098         estimate D2E/DX2                !
 ! R2    R(1,6)                  1.3942         estimate D2E/DX2                !
 ! R3    R(1,23)                 1.3863         estimate D2E/DX2                !
 ! R4    R(2,3)                  1.395          estimate D2E/DX2                !
 ! R5    R(2,11)                 1.3836         estimate D2E/DX2                !
 ! R6    R(3,4)                  1.3899         estimate D2E/DX2                !
 ! R7    R(3,8)                  1.0818         estimate D2E/DX2                !
 ! R8    R(4,5)                  1.4109         estimate D2E/DX2                !
 ! R9    R(4,9)                  1.0831         estimate D2E/DX2                !
 ! R10   R(5,6)                  1.3902         estimate D2E/DX2                !
 ! R11   R(5,10)                 1.0832         estimate D2E/DX2                !
 ! R12   R(6,49)                 1.082          estimate D2E/DX2                !
 ! R13   R(7,11)                 1.3447         estimate D2E/DX2                !
 ! R14   R(7,13)                 1.4456         estimate D2E/DX2                !
 ! R15   R(7,23)                 1.3514         estimate D2E/DX2                !
 ! R16   R(11,50)                1.0191         estimate D2E/DX2                !
 ! R17   R(12,13)                1.4712         estimate D2E/DX2                !
 ! R18   R(12,17)                1.468          estimate D2E/DX2                !
 ! R19   R(12,22)                1.2565         estimate D2E/DX2                !
 ! R20   R(13,14)                1.379          estimate D2E/DX2                !
 ! R21   R(14,15)                1.4112         estimate D2E/DX2                !
 ! R22   R(14,18)                1.0827         estimate D2E/DX2                !
 ! R23   R(15,16)                1.4104         estimate D2E/DX2                !
 ! R24   R(15,20)                1.5222         estimate D2E/DX2                !
 ! R25   R(16,17)                1.3822         estimate D2E/DX2                !
 ! R26   R(16,19)                1.0783         estimate D2E/DX2                !
 ! R27   R(17,21)                1.526          estimate D2E/DX2                !
 ! R28   R(20,25)                1.546          estimate D2E/DX2                !
 ! R29   R(20,29)                1.5446         estimate D2E/DX2                !
 ! R30   R(20,33)                1.5339         estimate D2E/DX2                !
 ! R31   R(21,37)                1.5459         estimate D2E/DX2                !
 ! R32   R(21,41)                1.5463         estimate D2E/DX2                !
 ! R33   R(21,45)                1.5372         estimate D2E/DX2                !
 ! R34   R(23,24)                1.0103         estimate D2E/DX2                !
 ! R35   R(25,26)                1.0922         estimate D2E/DX2                !
 ! R36   R(25,27)                1.0929         estimate D2E/DX2                !
 ! R37   R(25,28)                1.0926         estimate D2E/DX2                !
 ! R38   R(29,30)                1.0923         estimate D2E/DX2                !
 ! R39   R(29,31)                1.0928         estimate D2E/DX2                !
 ! R40   R(29,32)                1.0923         estimate D2E/DX2                !
 ! R41   R(33,34)                1.093          estimate D2E/DX2                !
 ! R42   R(33,35)                1.0929         estimate D2E/DX2                !
 ! R43   R(33,36)                1.0919         estimate D2E/DX2                !
 ! R44   R(37,38)                1.0932         estimate D2E/DX2                !
 ! R45   R(37,39)                1.0888         estimate D2E/DX2                !
 ! R46   R(37,40)                1.0931         estimate D2E/DX2                !
 ! R47   R(41,42)                1.0886         estimate D2E/DX2                !
 ! R48   R(41,43)                1.0932         estimate D2E/DX2                !
 ! R49   R(41,44)                1.0931         estimate D2E/DX2                !
 ! R50   R(45,46)                1.0931         estimate D2E/DX2                !
 ! R51   R(45,47)                1.093          estimate D2E/DX2                !
 ! R52   R(45,48)                1.0918         estimate D2E/DX2                !
 ! A1    A(2,1,6)              121.8906         estimate D2E/DX2                !
 ! A2    A(2,1,23)             106.0918         estimate D2E/DX2                !
 ! A3    A(6,1,23)             132.0157         estimate D2E/DX2                !
 ! A4    A(1,2,3)              121.6491         estimate D2E/DX2                !
 ! A5    A(1,2,11)             106.0739         estimate D2E/DX2                !
 ! A6    A(3,2,11)             132.2733         estimate D2E/DX2                !
 ! A7    A(2,3,4)              116.4078         estimate D2E/DX2                !
 ! A8    A(2,3,8)              121.3999         estimate D2E/DX2                !
 ! A9    A(4,3,8)              122.1915         estimate D2E/DX2                !
 ! A10   A(3,4,5)              121.885          estimate D2E/DX2                !
 ! A11   A(3,4,9)              119.0938         estimate D2E/DX2                !
 ! A12   A(5,4,9)              119.0211         estimate D2E/DX2                !
 ! A13   A(4,5,6)              121.8353         estimate D2E/DX2                !
 ! A14   A(4,5,10)             119.0223         estimate D2E/DX2                !
 ! A15   A(6,5,10)             119.1423         estimate D2E/DX2                !
 ! A16   A(1,6,5)              116.3319         estimate D2E/DX2                !
 ! A17   A(1,6,49)             121.6001         estimate D2E/DX2                !
 ! A18   A(5,6,49)             122.068          estimate D2E/DX2                !
 ! A19   A(11,7,13)            125.7032         estimate D2E/DX2                !
 ! A20   A(11,7,23)            107.7076         estimate D2E/DX2                !
 ! A21   A(13,7,23)            126.5837         estimate D2E/DX2                !
 ! A22   A(2,11,7)             110.2395         estimate D2E/DX2                !
 ! A23   A(2,11,50)            130.322          estimate D2E/DX2                !
 ! A24   A(7,11,50)            119.4384         estimate D2E/DX2                !
 ! A25   A(13,12,17)           117.575          estimate D2E/DX2                !
 ! A26   A(13,12,22)           120.3896         estimate D2E/DX2                !
 ! A27   A(17,12,22)           122.0347         estimate D2E/DX2                !
 ! A28   A(7,13,12)            119.063          estimate D2E/DX2                !
 ! A29   A(7,13,14)            120.4523         estimate D2E/DX2                !
 ! A30   A(12,13,14)           120.4743         estimate D2E/DX2                !
 ! A31   A(13,14,15)           121.4708         estimate D2E/DX2                !
 ! A32   A(13,14,18)           120.2925         estimate D2E/DX2                !
 ! A33   A(15,14,18)           118.2356         estimate D2E/DX2                !
 ! A34   A(14,15,16)           118.5018         estimate D2E/DX2                !
 ! A35   A(14,15,20)           118.8506         estimate D2E/DX2                !
 ! A36   A(16,15,20)           122.6381         estimate D2E/DX2                !
 ! A37   A(15,16,17)           123.7107         estimate D2E/DX2                !
 ! A38   A(15,16,19)           117.8086         estimate D2E/DX2                !
 ! A39   A(17,16,19)           118.4806         estimate D2E/DX2                !
 ! A40   A(12,17,16)           118.2636         estimate D2E/DX2                !
 ! A41   A(12,17,21)           119.9101         estimate D2E/DX2                !
 ! A42   A(16,17,21)           121.8262         estimate D2E/DX2                !
 ! A43   A(15,20,25)           108.206          estimate D2E/DX2                !
 ! A44   A(15,20,29)           109.2394         estimate D2E/DX2                !
 ! A45   A(15,20,33)           112.5544         estimate D2E/DX2                !
 ! A46   A(25,20,29)           109.1175         estimate D2E/DX2                !
 ! A47   A(25,20,33)           108.8989         estimate D2E/DX2                !
 ! A48   A(29,20,33)           108.7728         estimate D2E/DX2                !
 ! A49   A(17,21,37)           109.6964         estimate D2E/DX2                !
 ! A50   A(17,21,41)           109.5703         estimate D2E/DX2                !
 ! A51   A(17,21,45)           111.5842         estimate D2E/DX2                !
 ! A52   A(37,21,41)           109.9581         estimate D2E/DX2                !
 ! A53   A(37,21,45)           107.9545         estimate D2E/DX2                !
 ! A54   A(41,21,45)           108.0437         estimate D2E/DX2                !
 ! A55   A(1,23,7)             109.8857         estimate D2E/DX2                !
 ! A56   A(1,23,24)            125.4772         estimate D2E/DX2                !
 ! A57   A(7,23,24)            124.6304         estimate D2E/DX2                !
 ! A58   A(20,25,26)           111.4995         estimate D2E/DX2                !
 ! A59   A(20,25,27)           109.4166         estimate D2E/DX2                !
 ! A60   A(20,25,28)           110.9086         estimate D2E/DX2                !
 ! A61   A(26,25,27)           108.1154         estimate D2E/DX2                !
 ! A62   A(26,25,28)           108.4264         estimate D2E/DX2                !
 ! A63   A(27,25,28)           108.3802         estimate D2E/DX2                !
 ! A64   A(20,29,30)           110.9985         estimate D2E/DX2                !
 ! A65   A(20,29,31)           109.1555         estimate D2E/DX2                !
 ! A66   A(20,29,32)           111.9014         estimate D2E/DX2                !
 ! A67   A(30,29,31)           108.3229         estimate D2E/DX2                !
 ! A68   A(30,29,32)           108.4321         estimate D2E/DX2                !
 ! A69   A(31,29,32)           107.9183         estimate D2E/DX2                !
 ! A70   A(20,33,34)           111.7047         estimate D2E/DX2                !
 ! A71   A(20,33,35)           111.6691         estimate D2E/DX2                !
 ! A72   A(20,33,36)           109.0766         estimate D2E/DX2                !
 ! A73   A(34,33,35)           108.6056         estimate D2E/DX2                !
 ! A74   A(34,33,36)           107.8291         estimate D2E/DX2                !
 ! A75   A(35,33,36)           107.8074         estimate D2E/DX2                !
 ! A76   A(21,37,38)           109.0686         estimate D2E/DX2                !
 ! A77   A(21,37,39)           111.5524         estimate D2E/DX2                !
 ! A78   A(21,37,40)           110.6322         estimate D2E/DX2                !
 ! A79   A(38,37,39)           108.6511         estimate D2E/DX2                !
 ! A80   A(38,37,40)           108.0919         estimate D2E/DX2                !
 ! A81   A(39,37,40)           108.7604         estimate D2E/DX2                !
 ! A82   A(21,41,42)           111.231          estimate D2E/DX2                !
 ! A83   A(21,41,43)           109.2458         estimate D2E/DX2                !
 ! A84   A(21,41,44)           110.5488         estimate D2E/DX2                !
 ! A85   A(42,41,43)           108.8113         estimate D2E/DX2                !
 ! A86   A(42,41,44)           108.7306         estimate D2E/DX2                !
 ! A87   A(43,41,44)           108.205          estimate D2E/DX2                !
 ! A88   A(21,45,46)           111.8216         estimate D2E/DX2                !
 ! A89   A(21,45,47)           111.7252         estimate D2E/DX2                !
 ! A90   A(21,45,48)           108.8397         estimate D2E/DX2                !
 ! A91   A(46,45,47)           108.4387         estimate D2E/DX2                !
 ! A92   A(46,45,48)           107.901          estimate D2E/DX2                !
 ! A93   A(47,45,48)           107.9713         estimate D2E/DX2                !
 ! D1    D(6,1,2,3)              0.0691         estimate D2E/DX2                !
 ! D2    D(6,1,2,11)           179.4505         estimate D2E/DX2                !
 ! D3    D(23,1,2,3)          -179.4869         estimate D2E/DX2                !
 ! D4    D(23,1,2,11)           -0.1055         estimate D2E/DX2                !
 ! D5    D(2,1,6,5)             -0.1737         estimate D2E/DX2                !
 ! D6    D(2,1,6,49)           179.8515         estimate D2E/DX2                !
 ! D7    D(23,1,6,5)           179.2521         estimate D2E/DX2                !
 ! D8    D(23,1,6,49)           -0.7227         estimate D2E/DX2                !
 ! D9    D(2,1,23,7)             0.3189         estimate D2E/DX2                !
 ! D10   D(2,1,23,24)          179.4147         estimate D2E/DX2                !
 ! D11   D(6,1,23,7)          -179.1736         estimate D2E/DX2                !
 ! D12   D(6,1,23,24)           -0.0779         estimate D2E/DX2                !
 ! D13   D(1,2,3,4)              0.0838         estimate D2E/DX2                !
 ! D14   D(1,2,3,8)            179.7542         estimate D2E/DX2                !
 ! D15   D(11,2,3,4)          -179.1129         estimate D2E/DX2                !
 ! D16   D(11,2,3,8)             0.5574         estimate D2E/DX2                !
 ! D17   D(1,2,11,7)            -0.1436         estimate D2E/DX2                !
 ! D18   D(1,2,11,50)         -179.9987         estimate D2E/DX2                !
 ! D19   D(3,2,11,7)           179.1448         estimate D2E/DX2                !
 ! D20   D(3,2,11,50)           -0.7103         estimate D2E/DX2                !
 ! D21   D(2,3,4,5)             -0.1269         estimate D2E/DX2                !
 ! D22   D(2,3,4,9)            179.9454         estimate D2E/DX2                !
 ! D23   D(8,3,4,5)           -179.7944         estimate D2E/DX2                !
 ! D24   D(8,3,4,9)              0.2779         estimate D2E/DX2                !
 ! D25   D(3,4,5,6)              0.0197         estimate D2E/DX2                !
 ! D26   D(3,4,5,10)          -179.9223         estimate D2E/DX2                !
 ! D27   D(9,4,5,6)            179.9474         estimate D2E/DX2                !
 ! D28   D(9,4,5,10)             0.0054         estimate D2E/DX2                !
 ! D29   D(4,5,6,1)              0.1307         estimate D2E/DX2                !
 ! D30   D(4,5,6,49)          -179.8946         estimate D2E/DX2                !
 ! D31   D(10,5,6,1)          -179.9274         estimate D2E/DX2                !
 ! D32   D(10,5,6,49)            0.0473         estimate D2E/DX2                !
 ! D33   D(13,7,11,2)         -178.8475         estimate D2E/DX2                !
 ! D34   D(13,7,11,50)           1.0256         estimate D2E/DX2                !
 ! D35   D(23,7,11,2)            0.3425         estimate D2E/DX2                !
 ! D36   D(23,7,11,50)        -179.7844         estimate D2E/DX2                !
 ! D37   D(11,7,13,12)          -0.8217         estimate D2E/DX2                !
 ! D38   D(11,7,13,14)         178.0067         estimate D2E/DX2                !
 ! D39   D(23,7,13,12)        -179.8608         estimate D2E/DX2                !
 ! D40   D(23,7,13,14)          -1.0324         estimate D2E/DX2                !
 ! D41   D(11,7,23,1)           -0.4112         estimate D2E/DX2                !
 ! D42   D(11,7,23,24)        -179.5163         estimate D2E/DX2                !
 ! D43   D(13,7,23,1)          178.7697         estimate D2E/DX2                !
 ! D44   D(13,7,23,24)          -0.3354         estimate D2E/DX2                !
 ! D45   D(17,12,13,7)         179.5177         estimate D2E/DX2                !
 ! D46   D(17,12,13,14)          0.6895         estimate D2E/DX2                !
 ! D47   D(22,12,13,7)          -0.1684         estimate D2E/DX2                !
 ! D48   D(22,12,13,14)       -178.9965         estimate D2E/DX2                !
 ! D49   D(13,12,17,16)         -0.6471         estimate D2E/DX2                !
 ! D50   D(13,12,17,21)        179.4545         estimate D2E/DX2                !
 ! D51   D(22,12,17,16)        179.0334         estimate D2E/DX2                !
 ! D52   D(22,12,17,21)         -0.865          estimate D2E/DX2                !
 ! D53   D(7,13,14,15)        -179.0816         estimate D2E/DX2                !
 ! D54   D(7,13,14,18)           0.5106         estimate D2E/DX2                !
 ! D55   D(12,13,14,15)         -0.2699         estimate D2E/DX2                !
 ! D56   D(12,13,14,18)        179.3224         estimate D2E/DX2                !
 ! D57   D(13,14,15,16)         -0.1966         estimate D2E/DX2                !
 ! D58   D(13,14,15,20)        178.714          estimate D2E/DX2                !
 ! D59   D(18,14,15,16)       -179.797          estimate D2E/DX2                !
 ! D60   D(18,14,15,20)         -0.8864         estimate D2E/DX2                !
 ! D61   D(14,15,16,17)          0.2307         estimate D2E/DX2                !
 ! D62   D(14,15,16,19)       -179.8698         estimate D2E/DX2                !
 ! D63   D(20,15,16,17)       -178.6362         estimate D2E/DX2                !
 ! D64   D(20,15,16,19)          1.2633         estimate D2E/DX2                !
 ! D65   D(14,15,20,25)        -60.7348         estimate D2E/DX2                !
 ! D66   D(14,15,20,29)         57.9472         estimate D2E/DX2                !
 ! D67   D(14,15,20,33)        178.8801         estimate D2E/DX2                !
 ! D68   D(16,15,20,25)        118.1283         estimate D2E/DX2                !
 ! D69   D(16,15,20,29)       -123.1897         estimate D2E/DX2                !
 ! D70   D(16,15,20,33)         -2.2567         estimate D2E/DX2                !
 ! D71   D(15,16,17,12)          0.2045         estimate D2E/DX2                !
 ! D72   D(15,16,17,21)       -179.8991         estimate D2E/DX2                !
 ! D73   D(19,16,17,12)       -179.6943         estimate D2E/DX2                !
 ! D74   D(19,16,17,21)          0.202          estimate D2E/DX2                !
 ! D75   D(12,17,21,37)         61.5221         estimate D2E/DX2                !
 ! D76   D(12,17,21,41)        -59.2775         estimate D2E/DX2                !
 ! D77   D(12,17,21,45)       -178.8919         estimate D2E/DX2                !
 ! D78   D(16,17,21,37)       -118.3726         estimate D2E/DX2                !
 ! D79   D(16,17,21,41)        120.8279         estimate D2E/DX2                !
 ! D80   D(16,17,21,45)          1.2134         estimate D2E/DX2                !
 ! D81   D(15,20,25,26)         59.0271         estimate D2E/DX2                !
 ! D82   D(15,20,25,27)        178.5769         estimate D2E/DX2                !
 ! D83   D(15,20,25,28)        -61.9138         estimate D2E/DX2                !
 ! D84   D(29,20,25,26)        -59.7323         estimate D2E/DX2                !
 ! D85   D(29,20,25,27)         59.8175         estimate D2E/DX2                !
 ! D86   D(29,20,25,28)        179.3268         estimate D2E/DX2                !
 ! D87   D(33,20,25,26)       -178.3313         estimate D2E/DX2                !
 ! D88   D(33,20,25,27)        -58.7815         estimate D2E/DX2                !
 ! D89   D(33,20,25,28)         60.7278         estimate D2E/DX2                !
 ! D90   D(15,20,29,30)         62.0586         estimate D2E/DX2                !
 ! D91   D(15,20,29,31)       -178.6137         estimate D2E/DX2                !
 ! D92   D(15,20,29,32)        -59.2285         estimate D2E/DX2                !
 ! D93   D(25,20,29,30)       -179.8288         estimate D2E/DX2                !
 ! D94   D(25,20,29,31)        -60.5011         estimate D2E/DX2                !
 ! D95   D(25,20,29,32)         58.8841         estimate D2E/DX2                !
 ! D96   D(33,20,29,30)        -61.151          estimate D2E/DX2                !
 ! D97   D(33,20,29,31)         58.1767         estimate D2E/DX2                !
 ! D98   D(33,20,29,32)        177.5619         estimate D2E/DX2                !
 ! D99   D(15,20,33,34)        -61.4075         estimate D2E/DX2                !
 ! D100  D(15,20,33,35)         60.4403         estimate D2E/DX2                !
 ! D101  D(15,20,33,36)        179.492          estimate D2E/DX2                !
 ! D102  D(25,20,33,34)        178.6073         estimate D2E/DX2                !
 ! D103  D(25,20,33,35)        -59.5449         estimate D2E/DX2                !
 ! D104  D(25,20,33,36)         59.5068         estimate D2E/DX2                !
 ! D105  D(29,20,33,34)         59.7923         estimate D2E/DX2                !
 ! D106  D(29,20,33,35)       -178.36           estimate D2E/DX2                !
 ! D107  D(29,20,33,36)        -59.3083         estimate D2E/DX2                !
 ! D108  D(17,21,37,38)        179.0596         estimate D2E/DX2                !
 ! D109  D(17,21,37,39)        -60.9182         estimate D2E/DX2                !
 ! D110  D(17,21,37,40)         60.2932         estimate D2E/DX2                !
 ! D111  D(41,21,37,38)        -60.3757         estimate D2E/DX2                !
 ! D112  D(41,21,37,39)         59.6465         estimate D2E/DX2                !
 ! D113  D(41,21,37,40)       -179.1421         estimate D2E/DX2                !
 ! D114  D(45,21,37,38)         57.2747         estimate D2E/DX2                !
 ! D115  D(45,21,37,39)        177.2969         estimate D2E/DX2                !
 ! D116  D(45,21,37,40)        -61.4917         estimate D2E/DX2                !
 ! D117  D(17,21,41,42)         62.3695         estimate D2E/DX2                !
 ! D118  D(17,21,41,43)       -177.4951         estimate D2E/DX2                !
 ! D119  D(17,21,41,44)        -58.5303         estimate D2E/DX2                !
 ! D120  D(37,21,41,42)        -58.2712         estimate D2E/DX2                !
 ! D121  D(37,21,41,43)         61.8642         estimate D2E/DX2                !
 ! D122  D(37,21,41,44)       -179.1711         estimate D2E/DX2                !
 ! D123  D(45,21,41,42)       -175.8663         estimate D2E/DX2                !
 ! D124  D(45,21,41,43)        -55.7309         estimate D2E/DX2                !
 ! D125  D(45,21,41,44)         63.2339         estimate D2E/DX2                !
 ! D126  D(17,21,45,46)        -61.125          estimate D2E/DX2                !
 ! D127  D(17,21,45,47)         60.6306         estimate D2E/DX2                !
 ! D128  D(17,21,45,48)        179.7667         estimate D2E/DX2                !
 ! D129  D(37,21,45,46)         59.4856         estimate D2E/DX2                !
 ! D130  D(37,21,45,47)       -178.7587         estimate D2E/DX2                !
 ! D131  D(37,21,45,48)        -59.6226         estimate D2E/DX2                !
 ! D132  D(41,21,45,46)        178.3623         estimate D2E/DX2                !
 ! D133  D(41,21,45,47)        -59.8821         estimate D2E/DX2                !
 ! D134  D(41,21,45,48)         59.254          estimate D2E/DX2                !
 --------------------------------------------------------------------------------
 Trust Radius=3.00D-01 FncErr=1.00D-07 GrdErr=1.00D-07 EigMax=2.50D+02 EigMin=1.00D-04
 Number of steps in this run=    289 maximum allowed number of steps=    300.
 GradGradGradGradGradGradGradGradGradGradGradGradGradGradGradGradGradGrad

 Leave Link  103 at Wed Mar  6 13:12:35 2019, MaxMem=  1342177280 cpu:               0.8 elap:               0.1
 (Enter /gpfs/apps/hpc/Apps/Restricted/Gaussian/g16/Rev_B.01-AVX/g16/l202.exe)
                          Input orientation:                          
 ---------------------------------------------------------------------
 Center     Atomic      Atomic             Coordinates (Angstroms)
 Number     Number       Type             X           Y           Z
 ---------------------------------------------------------------------
      1          6           0       -0.466074    2.739723    0.447772
      2          6           0       -1.854058    2.951118    0.319903
      3          6           0       -2.391934    4.233376    0.207908
      4          6           0       -1.486274    5.287507    0.227501
      5          6           0       -0.097537    5.074589    0.356415
      6          6           0        0.441142    3.798102    0.470540
      7          6           0       -1.489418    0.745897    0.439084
      8          1           0       -3.457367    4.390739    0.106028
      9          1           0       -1.856717    6.301763    0.142565
     10          1           0        0.566486    5.930269    0.367596
     11          7           0       -2.434650    1.695174    0.321927
     12          6           0       -3.103708   -1.179348    0.349603
     13          6           0       -1.723529   -0.680580    0.453203
     14          6           0       -0.666042   -1.561581    0.538014
     15          6           0       -0.868526   -2.958206    0.534195
     16          6           0       -2.188675   -3.446638    0.445185
     17          6           0       -3.302983   -2.633758    0.356297
     18          1           0        0.349360   -1.191372    0.603130
     19          1           0       -2.330652   -4.515531    0.445347
     20          6           0        0.343791   -3.876337    0.600690
     21          6           0       -4.713453   -3.208995    0.264086
     22          8           0       -4.064571   -0.375411    0.253487
     23          7           0       -0.291768    1.366395    0.521904
     24          1           0        0.595822    0.891890    0.609864
     25          6           0        1.226697   -3.601069   -0.638167
     26          1           0        1.551270   -2.558835   -0.674797
     27          1           0        2.117380   -4.233133   -0.597240
     28          1           0        0.685984   -3.827008   -1.560316
     29          6           0        1.152204   -3.560219    1.878360
     30          1           0        0.556678   -3.747504    2.774723
     31          1           0        2.035294   -4.202976    1.912131
     32          1           0        1.491157   -2.522096    1.899602
     33          6           0       -0.042479   -5.360738    0.615579
     34          1           0       -0.649384   -5.611748    1.489266
     35          1           0       -0.593772   -5.643320   -0.284788
     36          1           0        0.865794   -5.965453    0.654552
     37          6           0       -5.364450   -2.780987   -1.071188
     38          1           0       -6.367107   -3.212023   -1.134012
     39          1           0       -5.445635   -1.697917   -1.147513
     40          1           0       -4.782326   -3.150539   -1.919403
     41          6           0       -5.560336   -2.696954    1.452165
     42          1           0       -5.663498   -1.613622    1.424783
     43          1           0       -6.555431   -3.147082    1.405798
     44          1           0       -5.100567   -2.981869    2.402035
     45          6           0       -4.702021   -4.745308    0.314682
     46          1           0       -4.140924   -5.175143   -0.519130
     47          1           0       -4.271843   -5.116172    1.248558
     48          1           0       -5.729839   -5.107860    0.249878
     49          1           0        1.505306    3.630573    0.571254
     50          1           0       -3.413478    1.421064    0.249207
 ---------------------------------------------------------------------
                    Distance matrix (angstroms):
                    1          2          3          4          5
     1  C    0.000000
     2  C    1.409800   0.000000
     3  C    2.448973   1.395006   0.000000
     4  C    2.753277   2.366964   1.389891   0.000000
     5  C    2.365537   2.756054   2.448255   1.410867   0.000000
     6  C    1.394176   2.451125   2.878326   2.447923   1.390187
     7  C    2.241127   2.238339   3.609776   4.546537   4.547718
     8  H    3.433726   2.165376   1.081799   2.168907   3.437849
     9  H    3.836035   3.355336   2.137510   1.083123   2.155551
    10  H    3.354429   3.838835   3.414264   2.155596   1.083162
    11  N    2.232087   1.383650   2.541121   3.716610   4.108983
    12  C    4.725025   4.315467   5.461161   6.667174   6.938937
    13  C    3.644132   3.636487   4.965269   5.977064   5.981237
    14  C    4.306896   4.671553   6.055510   6.905014   6.662953
    15  C    5.712778   5.994773   7.358403   8.274507   8.071669
    16  C    6.421715   6.407725   7.686367   8.765047   8.774512
    17  C    6.077065   5.769882   6.928893   8.127943   8.348264
    18  H    4.017783   4.700584   6.090877   6.744370   6.286721
    19  H    7.491019   7.482895   8.752343   9.841747   9.847087
    20  C    6.667197   7.177989   8.567726   9.352243   8.965129
    21  C    7.311717   6.791630   7.796248   9.088816   9.483300
    22  O    4.763506   3.994568   4.903133   6.222293   6.741696
    23  N    1.386329   2.234480   3.567754   4.109579   3.716963
    24  H    2.137378   3.213473   4.500421   4.878809   4.247348
    25  C    6.652096   7.303430   8.671151   9.333616   8.832318
    26  H    5.779668   6.553264   7.903301   8.462027   7.877254
    27  H    7.509129   8.259959   9.626212  10.213183   9.615041
    28  H    6.962874   7.478638   8.807383   9.538835   9.139267
    29  C    6.659931   7.339203   8.723041   9.379188   8.856528
    30  H    6.967412   7.530559   8.886917   9.606947   9.170908
    31  H    7.523447   8.297186   9.678675  10.262002   9.645851
    32  H    5.798733   6.606208   7.973496   8.523551   7.912964
    33  C    8.113265   8.512120   9.886009  10.752687  10.438691
    34  H    8.418157   8.725899  10.079922  11.003917  10.760376
    35  H    8.415959   8.707373  10.051133  10.979162  10.748534
    36  H    8.808900   9.328173  10.715801  11.504073  11.086001
    37  C    7.535222   6.864038   7.724845   9.045852   9.564963
    38  H    8.529215   7.775975   8.546152   9.895366  10.497468
    39  H    6.858106   6.055267   6.807532   8.146371   8.759612
    40  H    7.676506   7.128777   8.047461   9.309876   9.735468
    41  C    7.517830   6.849761   7.721167   9.047066   9.562412
    42  H    6.849773   6.047268   6.809648   8.155261   8.766614
    43  H    8.523647   7.776254   8.558085   9.910956  10.507212
    44  H    7.618023   7.076399   8.013154   9.283011   9.701618
    45  C    8.601549   8.206454   9.271713  10.535939  10.845893
    46  H    8.779780   8.483504   9.597280  10.819966  11.053171
    47  H    8.765856   8.472854   9.593282  10.818433  11.048637
    48  H    9.451505   8.942802   9.919782  11.228179  11.636858
    49  H    2.166842   3.436592   3.960287   3.437026   2.168051
    50  H    3.235039   2.185830   2.992383   4.320181   4.935100
                    6          7          8          9         10
     6  C    0.000000
     7  C    3.611648   0.000000
     8  H    3.960108   4.155553   0.000000
     9  H    3.414094   5.575883   2.493076   0.000000
    10  H    2.138328   5.577595   4.316244   2.461820   0.000000
    11  N    3.565750   1.344737   2.891130   4.646164   5.190851
    12  C    6.111922   2.514062   5.586615   7.587151   8.001081
    13  C    4.974404   1.445630   5.370754   6.990518   6.996773
    14  C    5.473264   2.451977   6.588492   7.962805   7.594471
    15  C    6.882367   3.756985   7.803359   9.320779   9.005110
    16  C    7.707324   4.250453   7.946640   9.758744   9.773604
    17  C    7.443141   3.836397   7.030649   9.054330   9.397632
    18  H    4.992079   2.676010   6.774824   7.824702   7.128843
    19  H    8.763559   5.328259   8.983667  10.831904  10.840397
    20  C    7.676160   4.975121   9.112521  10.423331   9.811904
    21  C    8.701257   5.105507   7.704459   9.931275  10.555312
    22  O    6.145468   2.814817   4.806935   7.033603   7.824405
    23  N    2.540274   1.351385   4.397798   5.191418   4.646435
    24  H    2.913659   2.097309   5.378117   5.958191   5.044286
    25  C    7.522902   5.237735   9.293184  10.401109   9.606969
    26  H    6.553994   4.626854   8.601902   9.528518   8.609372
    27  H    8.273492   6.234878  10.292889  11.283829  10.326226
    28  H    7.894721   5.444395   9.352830  10.580979   9.946637
    29  C    7.525454   5.252839   9.359863  10.455873   9.627816
    30  H    7.890423   5.461902   9.458620  10.664919   9.972646
    31  H    8.284730   6.251784  10.357763  11.341457  10.354982
    32  H    6.564271   4.657974   8.688618   9.599788   8.639707
    33  C    9.172747   6.278199  10.344680  11.812245  11.310136
    34  H    9.527451   6.498322  10.480833  12.050020  11.659959
    35  H    9.527960   6.492170  10.441995  12.019263  11.649883
    36  H    9.774518   7.115875  11.235716  12.576119  11.902947
    37  C    8.908773   5.453046   7.513751   9.811918  10.636357
    38  H    9.902964   6.475463   8.234457  10.605913  11.571994
    39  H    8.214528   4.913367   6.526585   8.862252   9.830076
    40  H    9.015546   5.620314   7.920149  10.107271  10.784305
    41  C    8.897588   5.426963   7.514649   9.818796  10.636880
    42  H    8.213646   4.895087   6.531346   8.876316   9.840765
    43  H    9.902643   6.461758   8.252645  10.627998  11.584381
    44  H    8.967119   5.548857   7.894751  10.090272  10.755493
    45  C    9.973278   6.363146   9.222800  11.408907  11.904953
    46  H   10.123927   6.558001   9.610628  11.720700  12.094469
    47  H   10.113448   6.539189   9.609896  11.722854  12.091708
    48  H   10.837244   7.230729   9.767712  12.049568  12.708181
    49  H    1.081968   4.160192   5.042064   4.315348   2.492280
    50  H    4.534026   2.047904   2.973448   5.124070   6.015568
                   11         12         13         14         15
    11  N    0.000000
    12  C    2.951488   0.000000
    13  C    2.483372   1.471188   0.000000
    14  C    3.712294   2.474634   1.378998   0.000000
    15  C    4.914443   2.862595   2.434167   1.411232   0.000000
    16  C    5.149168   2.446840   2.804907   2.424968   1.410419
    17  C    4.415296   1.468014   2.513756   2.852375   2.462417
    18  H    4.020191   3.462383   2.140153   1.082745   2.147021
    19  H    6.212802   3.425916   3.882719   3.391951   2.137982
    20  C    6.232109   4.384295   3.808993   2.526220   1.522202
    21  C    5.408064   2.591922   3.920241   4.378418   3.862553
    22  O    2.636029   1.256508   2.369281   3.610811   4.118778
    23  N    2.177162   3.797039   2.498954   2.951845   4.362909
    24  H    3.148323   4.247856   2.806527   2.759888   4.119864
    25  C    6.509795   5.058935   4.292339   3.020823   2.485490
    26  H    5.914188   4.961975   3.940119   2.716965   2.734332
    27  H    7.530649   6.122244   5.336351   4.021620   3.438200
    28  H    6.616320   5.001965   4.445224   3.370923   2.749235
    29  C    6.550356   5.110619   4.311988   3.016140   2.500510
    30  H    6.677350   5.086753   4.471557   3.358000   2.770228
    31  H    7.569499   6.163859   5.353923   4.020246   3.446785
    32  H    5.973809   5.031725   3.977117   2.725806   2.760912
    33  C    7.456180   5.189016   4.975558   3.850771   2.541877
    34  H    7.611896   5.193140   5.152051   4.160409   2.828687
    35  H    7.590154   5.160357   5.142934   4.164471   2.820649
    36  H    8.347980   6.225491   5.888549   4.664138   3.473598
    37  C    5.528156   3.113656   4.471217   5.113856   4.777237
    38  H    6.454809   4.121002   5.521800   6.166180   5.751672
    39  H    4.768475   2.827524   4.177480   5.069921   5.036506
    40  H    5.832330   3.442636   4.591971   5.050493   4.623307
    41  C    5.508007   3.090921   4.448008   5.106746   4.787902
    42  H    4.752882   2.810184   4.163879   5.075789   5.058934
    43  H    6.450043   4.111195   5.508026   6.160501   5.756410
    44  H    5.771368   3.383638   4.527501   5.015656   4.625966
    45  C    6.827945   3.907927   5.041093   5.145398   4.235281
    46  H    7.128815   4.218637   5.195222   5.123494   4.090586
    47  H    7.115361   4.203718   5.176966   5.112904   4.092640
    48  H    7.559414   4.726491   5.974334   6.188793   5.322989
    49  H    4.396725   6.665394   5.387519   5.627995   7.003461
    50  H    1.019082   2.620721   2.704524   4.065463   5.073067
                   16         17         18         19         20
    16  C    0.000000
    17  C    1.382157   0.000000
    18  H    3.398940   3.934592   0.000000
    19  H    1.078281   2.120007   4.272867   0.000000
    20  C    2.573366   3.860401   2.684972   2.754150   0.000000
    21  C    2.542395   1.526049   5.460570   2.723533   5.112178
    22  O    3.603910   2.385522   4.502314   4.492647   5.640097
    23  N    5.173919   5.009598   2.638146   6.225750   5.281703
    24  H    5.157845   5.262620   2.097801   6.150733   4.774892
    25  C    3.586400   4.737368   2.849066   3.829487   1.545982
    26  H    4.003717   4.963119   2.224329   4.489176   2.195606
    27  H    4.499704   5.731280   3.717404   4.577304   2.169782
    28  H    3.525674   4.583570   3.426425   3.687389   2.188487
    29  C    3.637082   4.798302   2.807527   3.885413   1.544637
    30  H    3.613064   4.688944   3.360447   3.788473   2.188226
    31  H    4.534963   5.777566   3.691289   4.616343   2.165121
    32  H    4.063407   5.037663   2.180681   4.549161   2.199453
    33  C    2.880794   4.258467   4.187757   2.445218   1.533907
    34  H    2.854334   4.146521   4.617624   2.262326   2.188062
    35  H    2.811048   4.099791   4.636565   2.195850   2.187538
    36  H    3.964599   5.344890   4.802207   3.516149   2.154017
    37  C    3.581623   2.511780   6.162617   3.809522   6.048057
    38  H    4.473053   3.456048   7.225761   4.526199   6.963237
    39  H    4.025232   2.779963   6.074809   4.492134   6.428000
    40  H    3.522211   2.763029   6.044478   3.669598   5.758015
    41  C    3.597795   2.510092   6.157284   3.840803   6.080680
    42  H    4.048945   2.784666   6.083410   4.526393   6.471981
    43  H    4.481191   3.455918   7.221165   4.543554   6.984217
    44  H    3.538981   2.745456   6.011958   3.721986   5.803960
    45  C    2.832046   2.533314   6.183051   2.386056   5.128073
    46  H    2.780092   2.815521   6.106763   2.154621   4.801413
    47  H    2.787892   2.810196   6.097225   2.184981   4.822966
    48  H    3.916330   3.467295   7.240188   3.455942   6.207149
    49  H    7.984254   7.899854   4.958668   9.004968   7.596295
    50  H    5.023253   4.057740   4.594457   6.037727   6.504081
                   21         22         23         24         25
    21  C    0.000000
    22  O    2.906950   0.000000
    23  N    6.368042   4.164130   0.000000
    24  H    6.717531   4.842760   1.010301   0.000000
    25  C    6.021060   6.260785   5.322330   4.705556   0.000000
    26  H    6.367964   6.096452   4.498479   3.804042   1.092219
    27  H    6.960676   7.336366   6.197677   5.480702   1.092930
    28  H    5.732739   6.145826   5.680060   5.194786   1.092601
    29  C    6.093864   6.324394   5.310043   4.662608   2.517960
    30  H    5.862385   6.251686   5.652169   5.119778   3.481118
    31  H    7.017808   7.389838   6.194016   5.452122   2.742288
    32  H    6.453211   6.179326   4.494134   3.757705   2.770270
    33  C    5.154760   6.415748   6.732403   6.285127   2.505817
    34  H    4.877596   6.372588   7.053946   6.679909   3.476849
    35  H    4.816532   6.331434   7.062441   6.702575   2.758582
    36  H    6.235264   7.464444   7.423849   6.862800   2.718765
    37  C    1.545945   3.038297   6.743206   7.200056   6.656070
    38  H    2.165470   3.908094   7.785482   8.268349   7.619913
    39  H    2.193640   2.370477   6.224091   6.804019   6.957114
    40  H    2.185357   3.596938   6.821129   7.187691   6.160593
    41  C    1.546262   3.010599   6.718184   7.175483   7.158961
    42  H    2.189752   2.337021   6.208960   6.791228   7.461936
    43  H    2.168000   3.900560   7.770858   8.251499   8.058872
    44  H    2.184552   3.533153   6.750322   7.118057   7.047021
    45  C    1.537188   4.416569   7.539641   7.741594   6.112847
    46  H    2.192477   4.862118   7.661037   7.779478   5.594929
    47  H    2.191240   4.848500   7.641512   7.758795   6.007429
    48  H    2.153818   5.016892   8.459468   8.725857   7.173035
    49  H    9.249163   6.868218   2.891092   2.886008   7.337369
    50  H    4.809117   1.910828   3.134075   4.060122   6.894960
                   26         27         28         29         30
    26  H    0.000000
    27  H    1.769116   0.000000
    28  H    1.772323   1.772385   0.000000
    29  C    2.771396   2.740980   3.480378   0.000000
    30  H    3.781711   3.747233   4.337695   1.092334   0.000000
    31  H    3.103172   2.510895   3.744313   1.092760   1.771390
    32  H    2.575363   3.090958   3.784460   1.092264   1.772206
    33  C    3.472142   2.721656   2.759983   2.502749   2.761053
    34  H    4.341236   3.729486   3.777361   2.757877   2.565616
    35  H    3.777216   3.071904   2.561979   3.473752   3.778658
    36  H    3.720496   2.476768   3.083977   2.713833   3.083825
    37  C    6.930633   7.636173   6.159640   7.195403   7.126356
    38  H    7.958533   8.562553   7.092675   8.107754   7.968924
    39  H    7.065502   7.995581   6.503859   7.493701   7.457378
    40  H    6.481790   7.108169   5.521682   7.057584   7.134153
    41  C    7.424149   8.093653   7.026277   6.781229   6.345917
    42  H    7.573279   8.455322   7.357025   7.102730   6.713150
    43  H    8.390085   8.967124   7.854822   7.733152   7.267500
    44  H    7.341171   7.915811   7.063898   6.301260   5.720971
    45  C    6.698014   6.899142   5.778364   6.174260   5.890783
    46  H    6.266608   6.329285   5.118650   6.031016   5.912282
    47  H    6.644390   6.708867   5.842240   5.677845   5.245669
    48  H    7.769627   7.941133   6.788237   7.239452   6.909826
    49  H    6.313758   7.973575   7.799385   7.317151   7.758299
    50  H    6.429783   7.954672   6.900885   6.950739   6.989597
                   31         32         33         34         35
    31  H    0.000000
    32  H    1.766804   0.000000
    33  C    2.708985   3.472556   0.000000
    34  H    3.061200   3.781037   1.093009   0.000000
    35  H    3.716589   4.342871   1.092903   1.775206   0.000000
    36  H    2.460805   3.714557   1.091860   1.765679   1.765350
    37  C    8.104225   7.476094   6.150096   6.066382   5.618786
    38  H    8.992292   8.451694   6.904996   6.732951   6.321692
    39  H    8.461739   7.621238   6.761572   6.728647   6.312771
    40  H    7.891021   7.371319   5.811821   5.895573   5.141003
    41  C    7.757142   7.067838   6.184041   5.710941   6.030327
    42  H    8.137177   7.227716   6.803789   6.413307   6.698001
    43  H    8.670169   8.085916   6.924108   6.400229   6.680619
    44  H    7.256143   6.626814   5.868109   5.249994   5.883328
    45  C    6.945314   6.768316   4.709632   4.307463   4.247765
    46  H    6.708339   6.679017   4.256674   4.051559   3.585582
    47  H    6.407357   6.353366   4.283456   3.664116   4.019607
    48  H    7.992446   7.845416   5.704713   5.253666   5.191510
    49  H    7.965132   6.294446   9.123666   9.534460   9.546939
    50  H    8.005264   6.505979   7.582263   7.657571   7.625052
                   36         37         38         39         40
    36  H    0.000000
    37  C    7.206590   0.000000
    38  H    7.943248   1.093188   0.000000
    39  H    7.829012   1.088786   1.772515   0.000000
    40  H    6.815441   1.093117   1.769788   1.773670   0.000000
    41  C    7.253579   2.532340   2.757624   2.787392   3.489772
    42  H    7.884373   2.771649   3.097964   2.582881   3.784462
    43  H    7.973843   2.772711   2.547610   3.138650   3.768405
    44  H    6.895864   3.489021   3.763073   3.790368   4.336421
    45  C    5.710064   2.493593   2.687413   3.460862   2.746065
    46  H    5.202821   2.744771   3.031140   3.766727   2.543851
    47  H    5.241129   3.468156   3.700346   4.336290   3.763015
    48  H    6.663453   2.700568   2.432172   3.696104   3.071590
    49  H    9.617673   9.539354  10.569009   8.925388   9.577118
    50  H    8.546175   4.817361   5.665926   3.975995   5.241772
                   41         42         43         44         45
    41  C    0.000000
    42  H    1.088577   0.000000
    43  H    1.093152   1.774092   0.000000
    44  H    1.093076   1.773136   1.770992   0.000000
    45  C    2.495260   3.458932   2.679550   2.761448   0.000000
    46  H    3.470181   4.333758   3.694350   3.776847   1.093084
    47  H    2.748506   3.773011   3.019407   2.563697   1.093032
    48  H    2.699388   3.687072   2.421240   3.089920   1.091812
    49  H    9.525592   8.923108  10.564496   9.524375  10.428429
    50  H    4.797310   3.956500   5.663703   5.183315   6.299903
                   46         47         48         49         50
    46  H    0.000000
    47  H    1.773510   0.000000
    48  H    1.766508   1.767253   0.000000
    49  H   10.517105  10.504273  11.349486   0.000000
    50  H    6.680529   6.668655   6.927653   5.401859   0.000000
 Symmetry turned off by external request.
 Stoichiometry    C21H26N2O(1+,2)
 Framework group  C1[X(C21H26N2O)]
 Deg. of freedom   144
 Full point group                 C1      NOp   1
 Rotational constants (GHZ):           0.3534176           0.1425897           0.1063928
 Leave Link  202 at Wed Mar  6 13:12:35 2019, MaxMem=  1342177280 cpu:               1.7 elap:               0.3
 (Enter /gpfs/apps/hpc/Apps/Restricted/Gaussian/g16/Rev_B.01-AVX/g16/l716.exe)
 Electric field and nuclear coordinate derivatives read from checkpoint file.
 Dipole        =-1.14523176D+00 2.14845274D-01 8.98226368D-01
 Polarizability= 3.86666313D+02 1.93478366D+01 5.80204253D+02
                 1.50196990D+01-9.93837785D+00 1.77197639D+02
 Full mass-weighted force constant matrix:
 Low frequencies ---   -7.8733   -0.0010   -0.0008    0.0025   13.4036   18.9447
 Low frequencies ---   36.6364   51.8611   55.7878
 Diagonal vibrational polarizability:
       16.3392157      34.9564503      52.1931398
 Harmonic frequencies (cm**-1), IR intensities (KM/Mole), Raman scattering
 activities (A**4/AMU), depolarization ratios for plane and unpolarized
 incident light, reduced masses (AMU), force constants (mDyne/A),
 and normal coordinates:
                      1                      2                      3
                      A                      A                      A
 Frequencies --     36.1002                51.3696                54.6635
 Red. masses --      3.3567                 4.0140                 2.8133
 Frc consts  --      0.0026                 0.0062                 0.0050
 IR Inten    --      0.5339                 0.3186                 0.1067
  Atom  AN      X      Y      Z        X      Y      Z        X      Y      Z
     1   6     0.00   0.00   0.03     0.00  -0.00   0.00    -0.00   0.01  -0.00
     2   6     0.00   0.00   0.01     0.00   0.00   0.02    -0.00   0.00   0.02
     3   6     0.00   0.00   0.03     0.01   0.00  -0.04    -0.01  -0.00   0.03
     4   6    -0.00   0.01   0.07     0.02  -0.01  -0.12    -0.02   0.00   0.03
     5   6    -0.00   0.01   0.09     0.02  -0.01  -0.13    -0.01   0.01   0.01
     6   6    -0.00   0.00   0.07     0.01  -0.01  -0.07    -0.01   0.01  -0.00
     7   6     0.00   0.00  -0.04    -0.01   0.00   0.11     0.01   0.00   0.00
     8   1     0.00   0.00   0.01     0.01   0.01  -0.03    -0.01  -0.01   0.05
     9   1    -0.00   0.01   0.09     0.03  -0.01  -0.16    -0.02   0.00   0.04
    10   1    -0.01   0.01   0.12     0.03  -0.02  -0.19    -0.02   0.01   0.01
    11   7     0.01   0.00  -0.04    -0.01   0.01   0.09     0.00  -0.00   0.02
    12   6     0.01   0.00  -0.07    -0.02   0.00   0.13     0.00   0.00   0.02
    13   6     0.00   0.00  -0.05    -0.02   0.00   0.13     0.01   0.00   0.01
    14   6     0.00   0.00  -0.04    -0.01   0.01   0.10     0.01   0.00  -0.01
    15   6     0.00   0.00  -0.02    -0.00   0.01   0.04     0.00   0.00   0.03
    16   6    -0.00   0.00   0.02    -0.00   0.00   0.04     0.00   0.00   0.03
    17   6    -0.00   0.00   0.01    -0.01  -0.00   0.07     0.00   0.00   0.01
    18   1     0.00   0.00  -0.04    -0.01   0.01   0.09     0.01   0.00  -0.04
    19   1    -0.00   0.00   0.07     0.01   0.00  -0.01    -0.00   0.00   0.04
    20   6     0.00  -0.00  -0.03     0.00   0.01  -0.04    -0.00  -0.01   0.02
    21   6    -0.00  -0.00   0.05     0.00  -0.01  -0.03     0.01   0.00  -0.04
    22   8     0.02   0.00  -0.16    -0.02   0.00   0.15     0.00   0.00   0.04
    23   7     0.00   0.00   0.00    -0.01  -0.00   0.07     0.00   0.01  -0.01
    24   1     0.00   0.00   0.02    -0.01  -0.01   0.06     0.01   0.01  -0.02
    25   6    -0.01  -0.00  -0.04    -0.03   0.10  -0.05    -0.13  -0.15  -0.11
    26   1    -0.01  -0.01  -0.04    -0.02   0.10   0.03    -0.14  -0.16  -0.26
    27   1    -0.02  -0.01  -0.05    -0.04   0.08  -0.12    -0.12  -0.14  -0.12
    28   1    -0.02  -0.00  -0.03    -0.05   0.18  -0.05    -0.21  -0.26  -0.03
    29   6     0.02   0.00  -0.04     0.03  -0.07  -0.04     0.14   0.10  -0.11
    30   1     0.03   0.00  -0.03     0.06  -0.13  -0.04     0.24   0.21  -0.02
    31   1     0.02   0.00  -0.05     0.04  -0.06  -0.11     0.13   0.09  -0.14
    32   1     0.01   0.00  -0.04     0.02  -0.07   0.01     0.17   0.10  -0.25
    33   6    -0.00   0.00  -0.02     0.01   0.01  -0.13    -0.03  -0.00   0.21
    34   1     0.01   0.00  -0.01     0.03  -0.05  -0.14     0.03   0.11   0.28
    35   1    -0.02   0.00  -0.01    -0.00   0.06  -0.14    -0.09  -0.10   0.28
    36   1    -0.00  -0.00  -0.04     0.02   0.01  -0.19    -0.03  -0.01   0.22
    37   6     0.05  -0.18  -0.04     0.15  -0.06  -0.12     0.06   0.01  -0.06
    38   1     0.06  -0.21  -0.03     0.15  -0.04  -0.21     0.06   0.02  -0.10
    39   1     0.03  -0.19  -0.18     0.17  -0.06  -0.17     0.07   0.02  -0.06
    40   1     0.09  -0.28   0.03     0.24  -0.10  -0.04     0.08   0.01  -0.04
    41   6    -0.06   0.16  -0.06    -0.14   0.03  -0.15    -0.04  -0.00  -0.07
    42   1    -0.04   0.15  -0.19    -0.17   0.03  -0.23    -0.05  -0.00  -0.08
    43   1    -0.07   0.17  -0.07    -0.12  -0.00  -0.23    -0.03  -0.01  -0.10
    44   1    -0.13   0.25  -0.00    -0.23   0.10  -0.08    -0.07   0.01  -0.05
    45   6    -0.01   0.00   0.27     0.00  -0.01   0.04     0.01   0.00  -0.05
    46   1    -0.02  -0.13   0.33     0.06  -0.05   0.10     0.04   0.01  -0.03
    47   1    -0.01   0.15   0.32    -0.07   0.04   0.09    -0.04  -0.00  -0.03
    48   1    -0.01  -0.01   0.32     0.00  -0.01  -0.02     0.01   0.00  -0.09
    49   1    -0.00   0.01   0.09     0.01  -0.02  -0.08    -0.00   0.01  -0.02
    50   1     0.01  -0.00  -0.07    -0.01   0.01   0.10     0.00  -0.00   0.03
                      4                      5                      6
                      A                      A                      A
 Frequencies --     65.5949                76.7019               101.7219
 Red. masses --      4.0280                 4.5192                 5.5872
 Frc consts  --      0.0102                 0.0157                 0.0341
 IR Inten    --      0.2032                 0.5166                 3.6940
  Atom  AN      X      Y      Z        X      Y      Z        X      Y      Z
     1   6     0.01  -0.01  -0.13     0.01  -0.05   0.00     0.01   0.00  -0.05
     2   6    -0.01   0.00   0.09     0.03   0.03   0.00     0.01  -0.00  -0.11
     3   6    -0.02   0.01   0.24     0.12   0.07   0.02     0.00   0.00  -0.05
     4   6    -0.01   0.01   0.16     0.19   0.01   0.02    -0.01   0.01   0.08
     5   6     0.00  -0.00  -0.07     0.18  -0.08   0.02    -0.01   0.01   0.15
     6   6     0.02  -0.01  -0.22     0.09  -0.11   0.01    -0.01   0.01   0.07
     7   6     0.00  -0.00  -0.04    -0.09   0.01  -0.01     0.01  -0.00  -0.13
     8   1    -0.04   0.02   0.41     0.13   0.15   0.01     0.01  -0.00  -0.09
     9   1    -0.02   0.01   0.27     0.25   0.04   0.03    -0.01   0.01   0.14
    10   1     0.01  -0.00  -0.12     0.23  -0.12   0.03    -0.02   0.02   0.26
    11   7    -0.01   0.01   0.14    -0.04   0.06  -0.01     0.02  -0.00  -0.17
    12   6     0.00   0.00  -0.02    -0.09  -0.02  -0.01    -0.01   0.00   0.12
    13   6     0.00  -0.00  -0.03    -0.10   0.01  -0.02     0.01  -0.00  -0.10
    14   6     0.00  -0.00  -0.01    -0.08   0.04  -0.02     0.01  -0.01  -0.21
    15   6    -0.00  -0.00   0.00    -0.03   0.04  -0.01     0.01  -0.01  -0.10
    16   6     0.00  -0.00  -0.01    -0.02  -0.00  -0.01    -0.00  -0.00   0.01
    17   6     0.00  -0.00  -0.02    -0.04  -0.03  -0.01    -0.01   0.00   0.08
    18   1    -0.00  -0.00   0.02    -0.09   0.06  -0.03     0.02  -0.01  -0.35
    19   1     0.00   0.00   0.00     0.02  -0.01  -0.00    -0.00  -0.00   0.02
    20   6    -0.00   0.00   0.04     0.01   0.11   0.00     0.00  -0.00  -0.02
    21   6     0.00  -0.00  -0.03    -0.02  -0.09  -0.00    -0.00  -0.00   0.03
    22   8     0.00   0.00  -0.00    -0.10  -0.03   0.00    -0.03   0.01   0.34
    23   7     0.02  -0.01  -0.22    -0.06  -0.05  -0.01     0.01  -0.00  -0.09
    24   1     0.03  -0.01  -0.38    -0.08  -0.09  -0.01     0.00   0.00  -0.02
    25   6     0.05   0.00   0.08    -0.01   0.12  -0.01     0.11  -0.06   0.04
    26   1     0.05   0.00   0.09    -0.08   0.14  -0.05     0.11  -0.06   0.01
    27   1     0.05   0.01   0.11     0.03   0.18   0.00     0.11  -0.05   0.15
    28   1     0.08   0.00   0.06    -0.00   0.06  -0.00     0.19  -0.11   0.01
    29   6    -0.05  -0.00   0.08     0.01   0.19  -0.01    -0.11   0.05   0.04
    30   1    -0.09  -0.00   0.05     0.03   0.18   0.00    -0.19   0.07  -0.01
    31   1    -0.06  -0.01   0.11     0.04   0.23  -0.01    -0.11   0.06   0.14
    32   1    -0.05  -0.00   0.09    -0.03   0.20  -0.05    -0.14   0.06   0.03
    33   6    -0.00  -0.00   0.03     0.09   0.09   0.05     0.00  -0.00   0.00
    34   1    -0.03  -0.01   0.01     0.11   0.08   0.06    -0.04   0.02  -0.02
    35   1     0.02   0.01   0.01     0.10   0.04   0.06     0.04  -0.02  -0.02
    36   1    -0.00  -0.00   0.05     0.12   0.13   0.05    -0.00  -0.01   0.05
    37   6     0.03  -0.03  -0.05    -0.05  -0.12   0.00     0.12   0.01  -0.02
    38   1     0.03  -0.02  -0.06    -0.04  -0.15   0.02     0.11   0.04  -0.10
    39   1     0.04  -0.03  -0.07    -0.09  -0.12  -0.00     0.15   0.01  -0.04
    40   1     0.05  -0.04  -0.03    -0.05  -0.10  -0.00     0.18  -0.01   0.03
    41   6    -0.03   0.02  -0.06    -0.03  -0.12   0.00    -0.11  -0.01  -0.04
    42   1    -0.03   0.02  -0.08    -0.06  -0.13   0.01    -0.14  -0.02  -0.07
    43   1    -0.02   0.01  -0.07    -0.02  -0.15   0.01    -0.09  -0.05  -0.11
    44   1    -0.05   0.04  -0.04    -0.02  -0.12  -0.00    -0.18   0.02   0.00
    45   6    -0.00  -0.00   0.00     0.04  -0.09  -0.01    -0.01  -0.00   0.03
    46   1     0.01  -0.02   0.02     0.04  -0.07  -0.01     0.03  -0.01   0.06
    47   1    -0.02   0.02   0.02     0.06  -0.08  -0.01    -0.06   0.00   0.06
    48   1     0.00  -0.00  -0.00     0.05  -0.13   0.01    -0.00   0.00  -0.02
    49   1     0.03  -0.02  -0.38     0.08  -0.19   0.01    -0.01   0.01   0.13
    50   1    -0.02   0.01   0.25    -0.06   0.12  -0.01     0.01   0.00  -0.13
                      7                      8                      9
                      A                      A                      A
 Frequencies --    118.4523               136.1348               175.5164
 Red. masses --      3.8550                 3.7342                 3.7705
 Frc consts  --      0.0319                 0.0408                 0.0684
 IR Inten    --      0.0923                 0.3470                 0.9479
  Atom  AN      X      Y      Z        X      Y      Z        X      Y      Z
     1   6     0.01  -0.01  -0.09    -0.01  -0.06   0.02    -0.02   0.01   0.08
     2   6     0.01  -0.01  -0.10    -0.01  -0.07   0.02    -0.02   0.02   0.10
     3   6     0.00  -0.00  -0.01    -0.02  -0.08   0.01     0.00   0.03   0.04
     4   6    -0.00   0.00   0.11    -0.03  -0.08  -0.01     0.02   0.01  -0.06
     5   6    -0.00  -0.00   0.12    -0.03  -0.07  -0.01     0.02  -0.01  -0.08
     6   6     0.00  -0.01   0.01    -0.02  -0.06   0.00    -0.00  -0.01   0.01
     7   6     0.00  -0.01  -0.11     0.01  -0.06   0.01    -0.02   0.01   0.00
     8   1     0.00   0.00  -0.01    -0.02  -0.09   0.01     0.00   0.04   0.05
     9   1    -0.01   0.01   0.20    -0.04  -0.08  -0.02     0.04   0.01  -0.13
    10   1    -0.01   0.00   0.22    -0.04  -0.06  -0.03     0.04  -0.02  -0.18
    11   7     0.01  -0.01  -0.14    -0.00  -0.07   0.02    -0.03   0.02   0.07
    12   6    -0.00  -0.01  -0.00     0.01  -0.04  -0.00    -0.00  -0.01  -0.03
    13   6    -0.00  -0.01  -0.00    -0.00  -0.05  -0.01    -0.00   0.00  -0.09
    14   6    -0.01  -0.00   0.11    -0.01  -0.05  -0.03     0.01   0.01  -0.19
    15   6    -0.01  -0.00   0.16    -0.00  -0.05  -0.02     0.01   0.01  -0.03
    16   6    -0.01  -0.01   0.20    -0.01  -0.06  -0.00    -0.00   0.00   0.21
    17   6    -0.01  -0.01   0.09    -0.01  -0.03   0.01     0.00  -0.01   0.14
    18   1    -0.01  -0.00   0.12    -0.01  -0.05  -0.05     0.02   0.01  -0.33
    19   1    -0.01  -0.01   0.26    -0.02  -0.06  -0.00    -0.01   0.00   0.39
    20   6    -0.00   0.01   0.04     0.07   0.05  -0.00    -0.00  -0.01  -0.04
    21   6    -0.00   0.00   0.02    -0.05   0.08   0.00     0.01  -0.01   0.07
    22   8     0.00  -0.01  -0.07     0.02  -0.03  -0.02     0.00  -0.02  -0.16
    23   7     0.00  -0.01  -0.12     0.00  -0.06   0.02    -0.03   0.01   0.06
    24   1     0.00  -0.01  -0.11     0.01  -0.06   0.02    -0.03   0.01   0.05
    25   6    -0.10   0.13  -0.01     0.06   0.11   0.00     0.05  -0.06  -0.01
    26   1    -0.03   0.11   0.10    -0.03   0.13  -0.02     0.06  -0.06  -0.04
    27   1    -0.14   0.06  -0.18     0.12   0.19   0.03     0.05  -0.06   0.06
    28   1    -0.20   0.29   0.01     0.10   0.04  -0.00     0.09  -0.09  -0.02
    29   6     0.11  -0.08  -0.01     0.05   0.15  -0.01    -0.06   0.01  -0.01
    30   1     0.22  -0.23   0.03     0.06   0.13  -0.00    -0.09   0.01  -0.03
    31   1     0.16  -0.02  -0.17     0.09   0.21   0.01    -0.05   0.02   0.04
    32   1     0.03  -0.06   0.07    -0.02   0.17  -0.03    -0.08   0.02  -0.01
    33   6     0.02   0.01  -0.06     0.20   0.02   0.02    -0.03  -0.00  -0.04
    34   1     0.08  -0.08  -0.04     0.21  -0.01   0.02     0.01  -0.01  -0.01
    35   1    -0.04   0.08  -0.05     0.21  -0.03   0.03    -0.08   0.02  -0.02
    36   1     0.03   0.01  -0.18     0.24   0.09   0.03    -0.04  -0.02  -0.09
    37   6     0.05   0.07   0.01    -0.00   0.16  -0.00     0.13   0.08   0.04
    38   1     0.05   0.08  -0.04    -0.04   0.24  -0.02     0.15   0.06  -0.10
    39   1     0.06   0.08   0.07     0.09   0.17   0.03     0.13   0.09   0.13
    40   1     0.07   0.11   0.02    -0.02   0.13   0.00     0.23   0.16   0.07
    41   6    -0.04  -0.04   0.01    -0.04   0.15  -0.01    -0.07  -0.07   0.03
    42   1    -0.01  -0.04   0.06     0.02   0.15  -0.02    -0.00  -0.06   0.12
    43   1    -0.04  -0.02  -0.05    -0.06   0.20  -0.02    -0.10  -0.00  -0.12
    44   1    -0.08  -0.09   0.01    -0.07   0.13   0.00    -0.19  -0.19   0.05
    45   6    -0.01   0.00  -0.07    -0.18   0.09   0.00     0.02  -0.01  -0.05
    46   1     0.06   0.05  -0.05    -0.19   0.04   0.02     0.12   0.06  -0.01
    47   1    -0.10  -0.06  -0.05    -0.24   0.05   0.01    -0.10  -0.09  -0.02
    48   1    -0.01   0.01  -0.18    -0.21   0.16  -0.03     0.03  -0.01  -0.20
    49   1    -0.00  -0.01   0.02    -0.01  -0.05  -0.00    -0.00  -0.03  -0.02
    50   1     0.00  -0.00  -0.12     0.00  -0.09   0.01    -0.02   0.02   0.01
                     10                     11                     12
                      A                      A                      A
 Frequencies --    208.6979               214.2855               240.7123
 Red. masses --      3.8385                 1.4646                 3.1973
 Frc consts  --      0.0985                 0.0396                 0.1092
 IR Inten    --      2.7529                 1.6526                 3.5180
  Atom  AN      X      Y      Z        X      Y      Z        X      Y      Z
     1   6     0.11   0.01   0.04     0.03  -0.00  -0.04    -0.01  -0.09  -0.01
     2   6     0.10  -0.04   0.05     0.03  -0.01  -0.04    -0.01  -0.09  -0.01
     3   6    -0.00  -0.10   0.02     0.00  -0.02  -0.02    -0.03  -0.11  -0.00
     4   6    -0.08  -0.03  -0.03    -0.02  -0.01   0.03    -0.02  -0.11   0.01
     5   6    -0.07   0.05  -0.04    -0.02   0.01   0.03    -0.02  -0.11   0.01
     6   6     0.03   0.09   0.01     0.01   0.02  -0.02    -0.01  -0.10   0.00
     7   6     0.15  -0.02  -0.00     0.03  -0.00   0.02    -0.01  -0.05   0.00
     8   1    -0.02  -0.20   0.02    -0.00  -0.04  -0.01    -0.03  -0.11  -0.00
     9   1    -0.15  -0.06  -0.07    -0.04  -0.01   0.06    -0.02  -0.11   0.01
    10   1    -0.13   0.10  -0.08    -0.03   0.02   0.06    -0.03  -0.10   0.02
    11   7     0.14  -0.05   0.03     0.03  -0.01  -0.01    -0.01  -0.07   0.00
    12   6    -0.01   0.04  -0.02    -0.00   0.01   0.02    -0.01   0.04   0.00
    13   6     0.04  -0.00  -0.05    -0.00   0.00   0.07    -0.01   0.00   0.01
    14   6    -0.00  -0.03  -0.09    -0.01  -0.00   0.08     0.01   0.04  -0.00
    15   6    -0.05  -0.01   0.01    -0.01   0.00  -0.01    -0.00   0.06  -0.02
    16   6    -0.06   0.01   0.06    -0.01   0.00  -0.00     0.01   0.07  -0.04
    17   6    -0.05   0.03   0.00    -0.01   0.01   0.04     0.02   0.06   0.00
    18   1     0.00  -0.05  -0.15    -0.01  -0.01   0.11     0.00   0.05  -0.00
    19   1    -0.07   0.01   0.13    -0.01   0.00  -0.04     0.01   0.08  -0.06
    20   6    -0.04   0.04   0.01    -0.01   0.01  -0.03    -0.04   0.06  -0.01
    21   6    -0.05  -0.03  -0.01    -0.01  -0.01   0.02     0.06   0.04   0.01
    22   8     0.01   0.06   0.02     0.00   0.01  -0.06    -0.01   0.05  -0.01
    23   7     0.15  -0.00   0.02     0.03  -0.00  -0.01    -0.00  -0.07  -0.00
    24   1     0.16   0.01   0.02     0.03  -0.00  -0.00    -0.00  -0.07  -0.00
    25   6    -0.08   0.10  -0.00     0.01  -0.00  -0.02    -0.06   0.06  -0.02
    26   1     0.03   0.07   0.10    -0.26   0.07  -0.21     0.15  -0.00   0.13
    27   1    -0.14   0.01  -0.13     0.18   0.24   0.16    -0.19  -0.14  -0.17
    28   1    -0.15   0.26  -0.00     0.13  -0.33  -0.01    -0.16   0.32  -0.02
    29   6    -0.05   0.08   0.01    -0.05   0.04  -0.01    -0.07   0.07   0.00
    30   1     0.01  -0.07   0.01    -0.20   0.42  -0.04    -0.12   0.16  -0.01
    31   1     0.06   0.22  -0.06    -0.25  -0.22   0.22    -0.11   0.02   0.08
    32   1    -0.21   0.13   0.08     0.26  -0.05  -0.21    -0.01   0.05  -0.04
    33   6     0.03   0.02   0.01     0.01   0.00  -0.03    -0.13   0.09   0.01
    34   1     0.04   0.00   0.02     0.06  -0.02   0.00    -0.19   0.15  -0.02
    35   1     0.02   0.01   0.02    -0.05   0.01  -0.00    -0.10   0.10  -0.01
    36   1     0.05   0.05   0.01     0.02   0.02  -0.10    -0.17   0.02   0.07
    37   6    -0.13  -0.10   0.00     0.01   0.00   0.02     0.12   0.04  -0.01
    38   1    -0.09  -0.20   0.05     0.04  -0.06  -0.04     0.17  -0.05  -0.13
    39   1    -0.25  -0.11  -0.01    -0.05   0.00   0.06     0.02   0.04   0.05
    40   1    -0.13  -0.05  -0.02     0.07   0.07   0.02     0.24   0.15   0.02
    41   6    -0.10  -0.09  -0.03    -0.05  -0.04   0.01     0.08   0.02   0.03
    42   1    -0.13  -0.09  -0.02    -0.01  -0.03   0.05     0.10   0.03   0.06
    43   1    -0.09  -0.11  -0.07    -0.06  -0.00  -0.06     0.07   0.04   0.04
    44   1    -0.12  -0.08  -0.02    -0.10  -0.09   0.02     0.10  -0.01   0.01
    45   6     0.03  -0.04  -0.03     0.01  -0.01  -0.00     0.14   0.04   0.02
    46   1     0.06   0.01  -0.03    -0.00   0.01  -0.03     0.07   0.07  -0.03
    47   1     0.04  -0.03  -0.03     0.04  -0.02  -0.02     0.26   0.08  -0.02
    48   1     0.05  -0.09  -0.04     0.02  -0.02   0.02     0.15  -0.01   0.14
    49   1     0.05   0.19   0.00     0.01   0.04  -0.01    -0.01  -0.10   0.01
    50   1     0.14  -0.07   0.02     0.03  -0.01  -0.01    -0.01  -0.09   0.00
                     13                     14                     15
                      A                      A                      A
 Frequencies --    246.5078               261.8235               265.5596
 Red. masses --      1.4418                 2.4859                 1.5497
 Frc consts  --      0.0516                 0.1004                 0.0644
 IR Inten    --      0.5090                 0.6190                 0.6559
  Atom  AN      X      Y      Z        X      Y      Z        X      Y      Z
     1   6    -0.00  -0.01   0.03     0.03   0.03  -0.02     0.01   0.02  -0.01
     2   6    -0.01  -0.01   0.03     0.03   0.02  -0.04     0.00   0.02   0.03
     3   6    -0.01  -0.01   0.01     0.01   0.02   0.01     0.01   0.02  -0.05
     4   6    -0.00  -0.02  -0.02    -0.01   0.04   0.04     0.01   0.02  -0.06
     5   6    -0.00  -0.02  -0.01    -0.01   0.05  -0.01     0.00   0.03   0.05
     6   6    -0.00  -0.01   0.02     0.01   0.05  -0.04    -0.00   0.03   0.06
     7   6     0.00  -0.01  -0.02     0.02   0.01   0.03     0.00   0.01  -0.00
     8   1    -0.00  -0.01   0.01     0.01   0.00   0.03     0.02   0.02  -0.10
     9   1     0.00  -0.02  -0.05    -0.03   0.04   0.10     0.01   0.01  -0.13
    10   1    -0.00  -0.02  -0.04    -0.01   0.06  -0.01    -0.00   0.03   0.11
    11   7    -0.00  -0.01   0.00     0.03   0.02  -0.03    -0.00   0.02   0.09
    12   6     0.00   0.00  -0.02    -0.00  -0.02   0.01     0.01  -0.02  -0.00
    13   6     0.00  -0.00  -0.05    -0.01  -0.00   0.04     0.01  -0.00  -0.00
    14   6     0.01   0.01  -0.03    -0.04  -0.03   0.01     0.00  -0.01   0.01
    15   6    -0.00   0.01   0.04    -0.04  -0.03  -0.03    -0.00  -0.01  -0.01
    16   6    -0.00   0.01   0.09    -0.01  -0.06  -0.05     0.00  -0.03  -0.02
    17   6     0.01   0.00  -0.03     0.01  -0.04   0.01     0.00  -0.03   0.00
    18   1     0.01   0.00  -0.04    -0.04  -0.03   0.00     0.01  -0.02   0.03
    19   1    -0.00   0.01   0.19    -0.01  -0.06  -0.10     0.01  -0.03  -0.04
[...]
 ! A10   A(3,4,5)                0.0324                  1.4                    !
 ! A11   A(3,4,9)               -0.0313                  1.3                    !
 --------------------------------------------------------------------------------
                           ----------------------------
                           ! Normal Mode   139        !
 --------------------------                            --------------------------
 ! Name  Definition              Value          Relative Weight (%)             !
 --------------------------------------------------------------------------------
 ! R20   R(13,14)               -0.0467                  2.9                    !
 ! R21   R(14,15)               -0.0426                  2.7                    !
 ! R22   R(14,18)                1.0807                 67.7                    !
 ! R35   R(25,26)                0.0264                  1.7                    !
 ! R40   R(29,32)                0.0418                  2.6                    !
 ! A29   A(7,13,14)              0.0294                  1.8                    !
 ! A30   A(12,13,14)            -0.0272                  1.7                    !
 ! A31   A(13,14,15)             0.0562                  3.5                    !
 ! A32   A(13,14,18)            -0.0296                  1.9                    !
 ! A33   A(15,14,18)            -0.0267                  1.7                    !
 ! A34   A(14,15,16)            -0.027                   1.7                    !
 ! A35   A(14,15,20)             0.0288                  1.8                    !
 --------------------------------------------------------------------------------
                           ----------------------------
                           ! Normal Mode   140        !
 --------------------------                            --------------------------
 ! Name  Definition              Value          Relative Weight (%)             !
 --------------------------------------------------------------------------------
 ! R2    R(1,6)                 -0.0178                  0.8                    !
 ! R4    R(2,3)                  0.0441                  2.0                    !
 ! R6    R(3,4)                  0.0597                  2.8                    !
 ! R7    R(3,8)                 -0.9517                 44.2                    !
 ! R8    R(4,5)                  0.0149                  0.7                    !
 ! R9    R(4,9)                 -0.3604                 16.7                    !
 ! R10   R(5,6)                 -0.0171                  0.8                    !
 ! R11   R(5,10)                -0.0225                  1.0                    !
 ! R12   R(6,49)                 0.3759                 17.5                    !
 ! A4    A(1,2,3)                0.0237                  1.1                    !
 ! A6    A(3,2,11)              -0.0267                  1.2                    !
 ! A7    A(2,3,4)               -0.0409                  1.9                    !
 ! A8    A(2,3,8)                0.0233                  1.1                    !
 ! A9    A(4,3,8)                0.0176                  0.8                    !
 ! A11   A(3,4,9)               -0.0179                  0.8                    !
 ! A15   A(6,5,10)               0.0135                  0.6                    !
 ! A16   A(1,6,5)                0.0208                  1.0                    !
 --------------------------------------------------------------------------------
                           ----------------------------
                           ! Normal Mode   141        !
 --------------------------                            --------------------------
 ! Name  Definition              Value          Relative Weight (%)             !
 --------------------------------------------------------------------------------
 ! R2    R(1,6)                 -0.0459                  2.1                    !
 ! R4    R(2,3)                 -0.0144                  0.7                    !
 ! R6    R(3,4)                 -0.0218                  1.0                    !
 ! R7    R(3,8)                  0.3191                 14.8                    !
 ! R8    R(4,5)                 -0.0153                  0.7                    !
 ! R9    R(4,9)                  0.1793                  8.3                    !
 ! R10   R(5,6)                 -0.0557                  2.6                    !
 ! R11   R(5,10)                 0.2349                 10.9                    !
 ! R12   R(6,49)                 0.994                  46.0                    !
 ! A1    A(2,1,6)               -0.0252                  1.2                    !
 ! A3    A(6,1,23)               0.0272                  1.3                    !
 ! A13   A(4,5,6)               -0.0173                  0.8                    !
 ! A15   A(6,5,10)               0.0226                  1.0                    !
 ! A16   A(1,6,5)                0.0457                  2.1                    !
 ! A17   A(1,6,49)              -0.0238                  1.1                    !
 ! A18   A(5,6,49)              -0.0219                  1.0                    !
 --------------------------------------------------------------------------------
                           ----------------------------
                           ! Normal Mode   142        !
 --------------------------                            --------------------------
 ! Name  Definition              Value          Relative Weight (%)             !
 --------------------------------------------------------------------------------
 ! R23   R(15,16)                0.0418                  2.7                    !
 ! R25   R(16,17)                0.0434                  2.8                    !
 ! R26   R(16,19)               -1.0814                 68.9                    !
 ! R41   R(33,34)               -0.0128                  0.8                    !
 ! R42   R(33,35)               -0.0131                  0.8                    !
 ! R50   R(45,46)               -0.0122                  0.8                    !
 ! R51   R(45,47)               -0.017                   1.1                    !
 ! A34   A(14,15,16)             0.0279                  1.8                    !
 ! A36   A(16,15,20)            -0.0291                  1.9                    !
 ! A37   A(15,16,17)            -0.0571                  3.6                    !
 ! A38   A(15,16,19)             0.0264                  1.7                    !
 ! A39   A(17,16,19)             0.0307                  2.0                    !
 ! A40   A(12,17,16)             0.0281                  1.8                    !
 ! A42   A(16,17,21)            -0.0296                  1.9                    !
 --------------------------------------------------------------------------------
                           ----------------------------
                           ! Normal Mode   143        !
 --------------------------                            --------------------------
 ! Name  Definition              Value          Relative Weight (%)             !
 --------------------------------------------------------------------------------
 ! R5    R(2,11)                 0.0471                  3.2                    !
 ! R13   R(7,11)                 0.0415                  2.8                    !
 ! R16   R(11,50)               -1.0705                 73.0                    !
 ! R34   R(23,24)                0.0275                  1.9                    !
 ! A5    A(1,2,11)               0.024                   1.6                    !
 ! A6    A(3,2,11)              -0.0249                  1.7                    !
 ! A19   A(11,7,13)             -0.0253                  1.7                    !
 ! A20   A(11,7,23)              0.0246                  1.7                    !
 ! A22   A(2,11,7)              -0.0493                  3.4                    !
 ! A23   A(2,11,50)              0.0613                  4.2                    !
 --------------------------------------------------------------------------------
                           ----------------------------
                           ! Normal Mode   144        !
 --------------------------                            --------------------------
 ! Name  Definition              Value          Relative Weight (%)             !
 --------------------------------------------------------------------------------
 ! R3    R(1,23)                -0.045                   3.2                    !
 ! R15   R(7,23)                -0.0451                  3.2                    !
 ! R16   R(11,50)                0.0273                  1.9                    !
 ! R34   R(23,24)                1.0726                 75.1                    !
 ! A2    A(2,1,23)              -0.0234                  1.6                    !
 ! A3    A(6,1,23)               0.0244                  1.7                    !
 ! A20   A(11,7,23)             -0.0246                  1.7                    !
 ! A21   A(13,7,23)              0.0249                  1.7                    !
 ! A55   A(1,23,7)               0.0483                  3.4                    !
 ! A56   A(1,23,24)             -0.0227                  1.6                    !
 ! A57   A(7,23,24)             -0.0256                  1.8                    !
 --------------------------------------------------------------------------------
 Max01P=     42 Av01P=   24.85 Stan. Dev.=    7.84
 Max05P=     10 Av05P=    1.45 Stan. Dev.=    2.27
 Max10P=      6 Av10P=    0.59 Stan. Dev.=    1.27
 MaxNDP=     98 AvNDP=   67.78 Stan. Dev.=   16.46
 -------------------------------------------------------------------
 Center     Atomic                   Forces (Hartrees/Bohr)
 Number     Number              X              Y              Z
 -------------------------------------------------------------------
      1        6           0.000008224   -0.000003054   -0.000003314
      2        6           0.000008488   -0.000000384   -0.000003235
      3        6           0.000011149    0.000001279   -0.000003928
      4        6           0.000013011   -0.000000960   -0.000004909
      5        6           0.000012800   -0.000003460   -0.000005614
      6        6           0.000010240   -0.000004432   -0.000005053
      7        6           0.000004721   -0.000000986   -0.000001686
      8        1           0.000011279    0.000002945   -0.000003300
      9        1           0.000015109   -0.000000150   -0.000005519
     10        1           0.000014510   -0.000004850   -0.000006512
     11        7           0.000005808    0.000001977   -0.000001773
     12        6          -0.000000847    0.000003835    0.000000821
     13        6           0.000001878   -0.000000239   -0.000000562
     14        6          -0.000000149   -0.000002434   -0.000000609
     15        6          -0.000003474   -0.000001714    0.000000903
     16        6          -0.000004086    0.000000683    0.000001762
     17        6          -0.000002461    0.000002128    0.000001872
     18        1           0.000000419   -0.000004051   -0.000001291
     19        1          -0.000006259    0.000001135    0.000002452
     20        6          -0.000004635   -0.000004055   -0.000000435
     21        6          -0.000003106    0.000004833    0.000003239
     22        8           0.000002220    0.000003943    0.000000325
     23        7           0.000005516   -0.000002762   -0.000003119
     24        1           0.000004658   -0.000004786   -0.000002703
     25        6          -0.000005271   -0.000007191    0.000000852
     26        1          -0.000002951   -0.000007440   -0.000001008
     27        1          -0.000006279   -0.000008518   -0.000000060
     28        1          -0.000005987   -0.000006399    0.000000370
     29        6          -0.000003385   -0.000004753    0.000000794
     30        1          -0.000003591   -0.000003026    0.000000375
     31        1          -0.000005020   -0.000006653   -0.000000066
     32        1          -0.000001660   -0.000005484   -0.000000974
     33        6          -0.000007910   -0.000003581    0.000002259
     34        1          -0.000007949   -0.000001624    0.000002476
     35        1          -0.000009042   -0.000002907    0.000002433
     36        1          -0.000009098   -0.000005163    0.000001915
     37        6          -0.000004359    0.000006285    0.000002150
     38        1          -0.000004419    0.000007812    0.000003911
     39        1          -0.000001527    0.000005841    0.000001996
     40        1          -0.000004558    0.000004183    0.000002990
     41        6          -0.000001905    0.000008111    0.000002755
     42        1          -0.000000171    0.000008529    0.000002260
     43        1          -0.000003115    0.000010240    0.000003874
     44        1          -0.000002104    0.000008049    0.000002919
     45        6          -0.000007188    0.000006085    0.000003779
     46        1          -0.000008093    0.000003859    0.000003956
     47        1          -0.000007064    0.000005413    0.000003928
     48        1          -0.000007563    0.000007658    0.000004766
     49        1           0.000010045   -0.000006541   -0.000005340
     50        1           0.000005153    0.000002777   -0.000001120
 -------------------------------------------------------------------
 Cartesian Forces:  Max     0.000015109 RMS     0.000005203
 FormGI is forming the generalized inverse of G from B-inverse, IUseBI=4.
 Leave Link  716 at Wed Mar  6 13:12:36 2019, MaxMem=  1342177280 cpu:               9.2 elap:               0.7
 (Enter /gpfs/apps/hpc/Apps/Restricted/Gaussian/g16/Rev_B.01-AVX/g16/l9999.exe)

 ----------------------------------------------------------------------

 Electric dipole moment (input orientation):
 (Debye = 10**-18 statcoulomb cm , SI units = C m)
                  (au)            (Debye)         (10**-30 SI)
   Tot        0.147123D+01      0.373950D+01      0.124736D+02
   x         -0.114523D+01     -0.291089D+01     -0.970968D+01
   y          0.214845D+00      0.546082D+00      0.182153D+01
   z          0.898226D+00      0.228306D+01      0.761548D+01

 Dipole polarizability, Alpha (input orientation).
 (esu units = cm**3 , SI units = C**2 m**2 J**-1)
 Alpha(0;0):
               (au)            (10**-24 esu)      (10**-40 SI)
   iso        0.381356D+03      0.565111D+02      0.628771D+02
   aniso      0.352094D+03      0.521750D+02      0.580525D+02
   xx         0.386666D+03      0.572980D+02      0.637527D+02
   yx         0.193478D+02      0.286705D+01      0.319003D+01
   yy         0.580204D+03      0.859774D+02      0.956628D+02
   zx         0.150197D+02      0.222569D+01      0.247641D+01
   zy        -0.993838D+01     -0.147272D+01     -0.163862D+01
   zz         0.177198D+03      0.262580D+02      0.292159D+02

 ----------------------------------------------------------------------

 Dipole orientation:
     6          0.47470735          4.92304223          1.95824904
     6         -1.32127739          5.16738930          3.91077396
     6         -1.94901639          7.51758645          4.92662595
     6         -0.71205027          9.59861856          3.90790594
     6          1.08615701          9.35124350          1.95505657
     6          1.71874420          7.01132682          0.94207527
     6         -1.01027320          1.07105194          2.90334569
     1         -3.33377078          7.69702962          6.41975550
     1         -1.13836935         11.46393466          4.63472392
     1          1.99945007         11.03231484          1.22731473
     7         -2.17019068          2.74742875          4.42056951
     6         -3.30153104         -2.70958032          4.64343161
     6         -1.45572590         -1.62402824          2.87036254
     6         -0.20196294         -3.14919307          1.16953493
     6         -0.63254000         -5.77943798          1.07757073
     6         -2.38474561         -6.84173633          2.78202259
     6         -3.72056782         -5.45005115          4.54293235
     1          1.14010444         -2.34139778         -0.14682762
     1         -2.69442971         -8.85388697          2.69608590
     6          0.77183357         -7.34813366         -0.88238894
     6         -5.59552465         -6.68537883          6.35259705
     8         -4.46830615         -1.31211078          6.16781769
     7          0.60604537          2.36498359          1.40839205
     1          1.71839064          1.57428370          0.07328964
     6          0.02692178         -6.37520586         -3.53447921
     1          0.49464201         -4.37834781         -3.76657366
     1          1.05271311         -7.44631461         -4.97187331
     1         -1.99705504         -6.61416019         -3.86535244
     6          3.64635855         -7.00342439         -0.51024144
     1          4.23794580         -7.67944545          1.34825064
     1          4.65124707         -8.09350949         -1.94767159
     1          4.21561056         -5.02828474         -0.69785287
     6          0.14043201        -10.17173118         -0.70664291
     1          0.67675147        -10.96183908          1.12484036
     1         -1.87152991        -10.52373068         -1.01245361
     1          1.18772959        -11.18895518         -2.16461935
     6         -8.26998176         -5.60561963          5.88777907
     1         -9.60176752         -6.52577193          7.17125263
     1         -8.33349174         -3.57578157          6.21802603
     1         -8.88081203         -5.98301130          3.95088843
     6         -4.77783480         -6.17139097          9.11037834
     1         -4.79522372         -4.15750118          9.52949194
     1         -6.07904652         -7.13067661         10.39644674
     1         -2.87663174         -6.90347326          9.45132802
     6         -5.71253512         -9.56258568          5.97019729
     1         -6.33500658        -10.05916538          4.06421753
     1         -3.88120181        -10.45447258          6.31250248
     1         -7.06775897        -10.35784486          7.30729478
     1          3.09893359          6.81307964         -0.55333775
     1         -3.46751393          2.12580706          5.70087740

 Electric dipole moment (dipole orientation):
 (Debye = 10**-18 statcoulomb cm , SI units = C m)
                  (au)            (Debye)         (10**-30 SI)
   Tot        0.147123D+01      0.373950D+01      0.124736D+02
   x          0.000000D+00      0.000000D+00      0.000000D+00
   y          0.000000D+00      0.000000D+00      0.000000D+00
   z          0.147123D+01      0.373950D+01      0.124736D+02

 Dipole polarizability, Alpha (dipole orientation).
 (esu units = cm**3 , SI units = C**2 m**2 J**-1)
 Alpha(0;0):
               (au)            (10**-24 esu)      (10**-40 SI)
   iso        0.381356D+03      0.565111D+02      0.628771D+02
   aniso      0.352094D+03      0.521750D+02      0.580525D+02
   xx         0.275904D+03      0.408847D+02      0.454904D+02
   yx         0.412210D+02      0.610833D+01      0.679643D+01
   yy         0.575896D+03      0.853389D+02      0.949524D+02
   zx        -0.101794D+03     -0.150842D+02     -0.167835D+02
   zy         0.284810D+02      0.422044D+01      0.469587D+01
   zz         0.292269D+03      0.433098D+02      0.481886D+02

 ----------------------------------------------------------------------

 This type of calculation cannot be archived.


 A MATHEMATICIAN IS A MACHINE FOR TURNING COFFEE INTO THEOREMS.
     -- QUOTED BY PAUL ERDOS
 Job cpu time:       0 days  0 hours  0 minutes 23.1 seconds.
 Elapsed time:       0 days  0 hours  0 minutes  1.9 seconds.
 File lengths (MBytes):  RWF=     72 Int=      0 D2E=      0 Chk=     48 Scr=      8
 Normal termination of Gaussian 16 at Wed Mar  6 13:12:36 2019.
